ITEM: TIMESTEP
2000000
ITEM: NUMBER OF ATOMS
896
ITEM: BOX BOUNDS pp pp ff
-1.7153631884999999e+01 1.8003017117999999e+01
-1.7855467918999999e+01 1.7553981017000002e+01
-3.4618715923000003e+01 3.4618715923000003e+01
ITEM: ATOMS q 
0 
0 
0 
0 
0 
0 
0 
0 
0 
0 
0 
0 
0 
0 
0 
0 
0 
0 
0 
0 
0 
0 
0 
0 
0 
0 
0 
0 
0 
0 
0 
0 
0 
0 
0 
0 
0 
0 
0 
0 
0 
0 
0 
0 
0 
0 
0 
0 
0 
0 
0 
0 
0 
0 
0 
0 
0 
0 
0 
0 
0 
0 
0 
0 
0 
0 
0 
0 
0 
0 
0 
0 
0 
0 
0 
0 
0 
0 
0 
0 
0 
0 
0 
0 
0 
0 
0 
0 
0 
0 
0 
0 
0 
0 
0 
0 
0 
0 
0 
0 
0 
0 
0 
0 
0 
0 
0 
0 
0 
0 
0 
0 
0 
0 
0 
0 
0 
0 
0 
0 
0 
0 
0 
0 
0 
0 
0 
0 
0 
0 
0 
0 
0 
0 
0 
0 
0 
0 
0 
0 
0 
0 
0 
0 
0 
0 
0 
0 
0 
0 
0 
0 
0 
0 
0 
0 
0 
0 
0 
0 
0 
0 
0 
0 
0 
0 
0 
0 
0 
0 
0 
0 
0 
0 
0 
0 
0 
0 
0 
0 
0 
0 
0 
0 
0 
0 
0 
0 
0 
0 
0 
0 
0 
0 
0 
0 
0 
0 
0 
0 
0 
0 
0 
0 
0 
0 
0 
0 
0 
0 
0 
0 
0 
0 
0 
0 
0 
0 
0 
0 
0 
0 
0 
0 
0 
0 
0 
0 
0 
0 
0 
0 
0 
0 
0 
0 
0 
0 
0 
0 
0 
0 
0 
0 
0 
0 
0 
0 
0 
0 
0 
0 
0 
0 
0 
0 
0 
0 
0 
0 
0 
0 
0 
0 
0 
0 
0 
0 
0 
0 
0 
0 
0 
0 
0 
0 
0 
0 
0 
0 
0 
0 
0 
0 
0 
0 
0 
0 
0 
0 
0 
0 
0 
0 
0 
0 
0 
0 
0 
0 
0 
0 
0 
0 
0 
0 
0 
0 
0 
0 
0 
0 
0 
0 
0 
0 
0 
0 
0 
0 
0 
0 
0 
0 
0 
0 
0 
0 
0 
0 
0 
0 
0 
0 
0 
0 
0 
0 
0 
0 
0 
0 
0 
0 
0 
0 
0 
0 
0 
0 
0 
0 
0 
0 
0 
0 
0 
0 
0 
0 
0 
0 
0 
0 
0 
0 
0 
0 
0 
0 
0 
0 
0 
0 
0 
0 
0 
0 
0 
0 
0 
0 
0 
0 
0 
0 
0 
0 
0 
0 
0 
0 
0 
0 
0 
0 
0 
0 
0 
0 
0 
0 
0 
0 
0 
0 
0 
0 
0 
0 
0 
0 
0 
0 
0 
0 
0 
0 
0 
0 
0 
0 
0 
0 
0 
0 
0 
0 
0 
0 
0 
0 
0 
0 
0 
0 
0 
0 
0 
0 
0 
0 
0 
0 
0 
0 
0 
0 
0 
0 
0 
0 
0 
0 
0 
0 
0 
0 
0 
0 
0 
0 
0 
0 
0 
0 
0 
0 
0 
0 
0 
0 
0 
0 
0 
0 
0 
0 
0 
0 
0 
0 
0 
0 
0 
0 
0 
0 
0 
0 
0 
0 
0 
0 
0 
0 
0 
0 
0 
0 
0 
0 
0 
0 
0 
0 
0 
0 
0 
0 
0 
0 
0 
0 
0 
0 
0 
0 
0 
0 
0 
0 
0 
0 
0 
0 
0 
0 
0 
0 
0 
0 
0 
0 
0 
0 
0 
0 
0 
0 
0 
0 
0 
0 
0 
0 
0 
0 
0 
0 
0 
0 
0 
0 
0 
0 
0 
0 
0 
0 
0 
0 
0 
0 
0 
0 
0 
0 
0 
0 
0 
0 
0 
0 
0 
0 
0 
0 
0 
0 
0 
0 
0 
0 
0 
0 
0 
0 
0 
0 
0 
0 
0 
0 
0 
0 
0 
0 
0 
0 
0 
0 
0 
0 
0 
0 
0 
0 
0 
0 
0 
0 
0 
0 
0 
0 
0 
0 
0 
0 
0 
0 
0 
0 
0 
0 
0 
0 
0 
0 
0 
0 
0 
0 
0 
0 
0 
0 
0 
0 
0 
0 
0 
0 
0 
0 
0 
0 
0 
0 
0 
0 
0 
0 
0 
0 
0 
0 
0 
0 
0 
0 
0 
0 
0 
0 
0 
0 
0 
0 
0 
0 
0 
0 
0 
0 
0 
0 
0 
0 
0 
0 
0 
0 
0 
0 
0 
0 
0 
0 
0 
0 
0 
0 
0 
0 
0 
0 
0 
0 
0 
0 
0 
0 
0 
0 
0 
0 
0 
0 
0 
0 
0 
0 
0 
0 
0 
0 
0 
0 
0 
0 
0 
0 
0 
0 
0 
0 
0 
0 
0 
0 
0 
0 
0 
0 
0 
0 
0 
0 
0 
0 
0 
0 
0 
0 
0 
0 
0 
0 
0 
0 
0 
0 
0 
0 
0 
0 
0 
0 
0 
0 
0 
0 
0 
0 
0 
0 
0 
0 
0 
0 
0 
0 
0 
0 
0 
0 
0 
0 
0 
0 
0 
0 
0 
0 
0 
0 
0 
0 
0 
0 
0 
0 
0 
0 
0 
0 
0 
0 
0 
0 
0 
0 
0 
0 
0 
0 
0 
0 
0 
0 
0 
0 
0 
0 
0 
0 
0 
0 
0 
0 
0 
0 
0 
0 
0 
0 
0 
0 
0 
0 
0 
0 
0 
0 
0 
0 
0 
0 
0 
0 
0 
0 
0 
0 
0 
0 
0 
0 
0 
0 
0 
0 
0 
0 
0 
0 
0 
0 
0 
0 
0 
0 
0 
0 
0 
0 
0 
0 
0 
0 
0 
0 
0 
0 
0 
0 
0 
0 
0 
0 
0 
0 
0 
0 
0 
0 
0 
0 
0 
0 
0 
0 
0 
0 
ITEM: TIMESTEP
2200000
ITEM: NUMBER OF ATOMS
896
ITEM: BOX BOUNDS pp pp ff
-1.7153631884999999e+01 1.8003017117999999e+01
-1.7855467918999999e+01 1.7553981017000002e+01
-3.4618715923000003e+01 3.4618715923000003e+01
ITEM: ATOMS q 
0.000253979 
1.30861e-05 
8.97336e-06 
7.94137e-05 
0.000289079 
0.000102883 
0.000138016 
0.000202551 
0.00011207 
0.000107366 
0.00017974 
0.000100612 
-2.8139e-05 
-1.78094e-05 
3.34012e-05 
-3.07716e-05 
-7.85976e-05 
-0.000134053 
0.00015543 
3.72563e-05 
-8.79323e-05 
-2.03122e-05 
7.38379e-05 
8.1076e-05 
2.66267e-05 
0.000134281 
3.59851e-05 
0.000132914 
-0.00344496 
0.00237602 
-0.00121839 
-0.00246263 
-0.0104512 
-0.00822475 
-0.00695097 
-0.00859944 
3.68039e-05 
-0.00958011 
-0.0121161 
-0.000690501 
-0.000185376 
-0.000661133 
0.00216036 
0.00418683 
0.00455399 
0.0010648 
0.00310455 
0.00343772 
0.004332 
-0.000173897 
-0.00372468 
-0.00302861 
-0.00980796 
2.3623e-05 
-5.79714e-05 
6.77707e-05 
-8.25883e-05 
-0.000104016 
-9.70547e-05 
0.000122339 
-4.45246e-05 
-9.61899e-05 
-7.34872e-05 
0.000130858 
-1.70848e-05 
-5.12399e-05 
-1.08198e-05 
6.1894e-06 
0.000288432 
-1.73673e-05 
6.10617e-05 
0.000259947 
0.000436847 
-5.2701e-05 
2.05664e-05 
0.000254135 
0.000226152 
3.88091e-05 
1.64242e-05 
6.11637e-05 
0.000108328 
-0.000229614 
0.000250995 
0.000141494 
0.00225275 
0.00266488 
0.000895528 
0.000969281 
0.00135902 
0.000847207 
0.00323805 
0.000746852 
0.000181937 
-0.00179229 
-0.00527471 
-0.00404552 
-0.00376709 
-0.00653916 
-0.0116239 
0.00138565 
-0.00576504 
-0.0230011 
-0.00619987 
-0.00348429 
0.00079016 
-0.000139638 
4.32712e-05 
9.26881e-05 
-4.08266e-05 
1.21078e-05 
-5.73201e-05 
-3.01482e-05 
9.0224e-06 
0.000210911 
0.000117499 
0.000104275 
0.000182296 
0.000297561 
0.000282269 
-6.29546e-06 
3.68413e-05 
-7.01263e-05 
-6.12123e-05 
-2.28841e-05 
-1.88922e-05 
-3.78298e-06 
2.18815e-05 
0.00014135 
4.05762e-05 
7.32591e-05 
0.000215877 
0.000256626 
0.000301169 
0.006575 
-0.00322602 
-0.00726895 
0.00355765 
-0.00112919 
-0.00231424 
-0.000624148 
-0.00393432 
-0.00065783 
-0.00100807 
0.0029486 
-0.00508457 
-0.00437751 
0.000781395 
-0.000906012 
-0.00506117 
-0.00835309 
-0.000939655 
0.00422424 
0.00315097 
-0.000385024 
-0.00378184 
-0.00212351 
-0.00326617 
-0.00190895 
-0.00153845 
-0.00590211 
-0.0125912 
0.000401665 
0.000343635 
0.000638102 
0.000530997 
0.000461349 
0.000543748 
0.000292604 
0.000493333 
0.000499482 
0.000468601 
0.000217216 
0.00038649 
0.000161838 
0.00419812 
0.000366108 
0.000427436 
0.000548162 
0.000460384 
0.00047501 
0.000567219 
0.000584243 
0.000577615 
0.00058297 
0.00054542 
0.00380601 
0.000108425 
0.000437242 
0.000338577 
-0.00896319 
-0.0305117 
-0.00406585 
0.0015938 
-0.00933555 
-0.0109034 
-0.0110073 
-0.00857116 
-0.0081203 
-0.0127908 
-0.00589995 
-0.00818992 
-0.0213061 
-0.0244918 
0.00983913 
-0.00508675 
-0.00677138 
0.0188703 
-0.00756921 
-0.0130823 
-0.00823799 
-0.00876695 
-0.0141432 
-0.0141304 
-0.016376 
0.00322766 
-0.00335517 
-0.00855233 
-8.81317e-05 
-0.000122781 
-0.000102037 
-9.11527e-05 
-9.7059e-07 
-7.40517e-05 
-0.00010257 
-7.878e-05 
0.000249581 
8.68617e-05 
2.77241e-05 
0.000121051 
0.000360401 
0.000305183 
-6.60911e-05 
-7.09043e-05 
-8.19205e-05 
-3.75728e-06 
-5.72656e-05 
-4.14296e-05 
2.74058e-05 
7.99873e-05 
7.03079e-05 
1.51602e-05 
9.09931e-05 
0.000294724 
0.000248126 
0.000408611 
2.28594e-05 
0.000110851 
0.000339788 
0.00132626 
-0.00140995 
-0.00717552 
0.000832484 
-0.000255947 
-0.00045927 
0.000339525 
0.00223946 
0.00306279 
0.00176228 
0.0009327 
-0.00936607 
0.00229334 
0.0016941 
0.00188116 
-0.013582 
-0.000502393 
-0.00147688 
0.00191097 
0.00167955 
-0.0028881 
-0.0013944 
-0.00277914 
-0.00508733 
-0.0040491 
-0.00328836 
-0.000878716 
-0.00142863 
-0.00761372 
-0.0112268 
-0.0167892 
0.000484547 
0.000288115 
0.000569337 
0.000523063 
0.000394714 
0.000350979 
0.000598037 
0.000573508 
0.000515376 
0.000487559 
0.000507978 
0.000651568 
0.000657304 
0.000621706 
0.00028094 
0.000524722 
0.000187204 
0.000256013 
0.000348031 
0.000239813 
0.000266463 
0.000149548 
0.000124919 
0.000159111 
0.000470115 
0.000292682 
0.000222259 
0.000306832 
0.000631103 
0.000290913 
0.000211773 
0.000376968 
-0.0172685 
-0.0156333 
-0.0178542 
-0.0125084 
-0.011145 
-0.00785708 
-0.0164772 
-0.00183845 
-0.00384206 
-0.000769072 
-0.0186299 
-0.0188527 
-0.00038553 
-0.0023922 
-0.0271695 
-0.0161461 
-0.0080518 
-0.00992094 
-0.0144139 
-0.0286064 
-9.64293e-05 
-0.00806226 
-0.00818806 
-0.00327596 
-0.00291227 
-0.000677695 
-0.00273815 
-0.0044365 
-0.00727354 
-0.00482273 
-0.00335254 
-0.00661806 
-6.64524e-05 
1.36555e-05 
5.52991e-05 
6.74283e-05 
3.97504e-05 
5.99328e-05 
0.000177622 
0.000154936 
0.000246212 
0.000510896 
0.000422253 
0.000127533 
0.000151453 
0.000293502 
0.000557826 
9.06855e-05 
0.0001725 
0.000380647 
0.000491068 
0.000205323 
0.000146179 
0.000202608 
0.000256541 
0.000271425 
0.000221402 
-0.00175624 
-0.00387605 
-0.00604537 
-0.00284979 
-0.00211233 
0.000238657 
0.00071708 
0.000491154 
-0.00703553 
-0.00197064 
-0.00254036 
-0.00450462 
-0.0119279 
-0.00573493 
-0.00747156 
-0.0117555 
-0.00771831 
-0.0175752 
-0.00153268 
-0.0104615 
-0.0260475 
-0.0147868 
-0.0048287 
-0.00370811 
-0.00533345 
-0.00243991 
-0.00589752 
-0.00359141 
0.000446323 
0.000483007 
0.00044954 
0.000430859 
0.000232667 
0.000363953 
0.000440781 
0.000333151 
0.000427386 
0.000502865 
0.000356435 
0.000276967 
0.00055494 
0.000473656 
0.000402011 
0.000514869 
0.000594403 
0.000629796 
0.000638516 
0.000582105 
0.000505249 
0.000587375 
0.0005459 
0.000484923 
-0.0195913 
-0.00798181 
-0.0044844 
-0.00639204 
-0.00692222 
-0.0158306 
-0.00579598 
-0.0038841 
-0.014175 
-0.0167421 
-0.0163421 
-0.00759862 
-0.00713843 
-0.0092327 
-0.00613039 
-0.00538608 
-0.0218126 
-0.0059344 
-0.00504659 
-0.00438768 
-0.0246352 
-0.0250894 
-0.00445804 
-0.00260037 
-0.0101622 
-0.0130068 
-0.00547163 
4.29047e-05 
0.000140412 
-3.52157e-06 
-2.1097e-05 
-2.44248e-05 
3.34057e-05 
-3.6487e-05 
-5.45186e-05 
-5.47463e-05 
-8.06875e-05 
-9.38545e-05 
-6.99608e-05 
-8.81412e-05 
-0.000213479 
-0.000169999 
-9.55627e-05 
-7.66719e-05 
-2.04166e-05 
2.69494e-05 
7.91446e-05 
-0.000311216 
-4.94886e-05 
-3.62474e-05 
-0.000145561 
-0.000152223 
-0.000114274 
-7.10404e-05 
-7.45856e-05 
-3.4831e-05 
-0.000137323 
-0.000145411 
-6.55174e-05 
-1.02286e-06 
-0.00179123 
-0.00162023 
-0.00247854 
-1.13424e-05 
-0.00141107 
-0.000128527 
-0.000195204 
-0.00136555 
-0.00646702 
-0.000248645 
0.00013359 
0.00172834 
-0.0138225 
-0.000652191 
0.00457041 
0.00567657 
-0.00103236 
-0.00177673 
0.000663792 
-0.00248265 
-0.000356573 
-0.00208603 
0.00137699 
-0.00257423 
-0.00136431 
0.00303768 
0.00214738 
-0.00388431 
-0.000236175 
-0.000283624 
-7.13389e-05 
1.56962e-05 
-0.000249183 
-0.000166717 
4.77491e-05 
0.000118751 
-0.000153919 
-0.000199244 
5.05801e-05 
4.71383e-05 
2.12898e-05 
-6.8535e-05 
-1.45863e-05 
0.000163166 
0.000170617 
0.000157665 
0.000269274 
0.000409845 
5.88823e-05 
0.000171467 
0.000319749 
0.000198493 
-0.0135137 
-0.00381829 
0.00188573 
-0.000548166 
-0.0210212 
-0.00436958 
0.000257329 
-0.00230302 
-0.00511589 
-0.00660672 
-0.000185683 
4.46231e-05 
-0.00119382 
0.00185289 
-0.000728025 
-0.0141362 
-0.00804512 
-0.00730881 
-0.00132778 
-0.0099516 
-0.0135116 
0.00209155 
0.00387217 
0.0216597 
0.0743165 
-0.0015276 
-0.00158873 
0.00733774 
-3.92145e-05 
0.000101171 
-0.000811229 
-0.0013425 
0.000208879 
0.000132705 
0.000169876 
0.000296183 
0.000302177 
0.0273934 
0.00583963 
0.000560515 
0.000669606 
0.00339001 
0.00604903 
0.000597405 
0.0001207 
0.000207563 
-8.93293e-05 
0.000206324 
0.000215403 
0.000370398 
0.000378744 
0.000399491 
0.000392049 
0.000370549 
-0.00237674 
-0.00756434 
-0.00470686 
-0.00560352 
-0.0498977 
-0.0915319 
0.0219733 
-0.00127624 
-0.079922 
0.0104479 
0.00325181 
-0.0136965 
-0.00538473 
-0.00443662 
-0.00889126 
-0.00852992 
-0.0139537 
-0.00928232 
-0.0106536 
0.00804065 
0.00612623 
-0.00357775 
0.00369044 
0.00196324 
-0.000749164 
-0.00854881 
-0.000557242 
0.00369556 
-0.0192958 
-0.0140162 
-0.00791312 
0.0002399 
0.00019156 
0.000234723 
0.000251484 
0.000526814 
0.000449395 
0.000425026 
0.000497981 
0.00035873 
0.000538074 
0.000589772 
0.000382386 
0.00024404 
0.000323712 
0.000362984 
0.000250782 
0.00031223 
0.000244711 
0.000212939 
0.000137542 
0.000204377 
0.000226124 
0.000111781 
-7.49741e-06 
-0.00546459 
-0.0169306 
-0.00869273 
-0.005424 
-0.00178489 
-0.00126325 
-0.00373644 
-0.0228074 
-0.00754545 
-0.00634205 
-0.00661801 
-0.0156906 
-0.0274836 
-0.00860183 
-0.00491937 
-0.00446964 
-0.00853726 
-0.00640099 
-0.00503241 
-0.00530559 
-0.00499802 
-0.00144478 
-0.00568422 
-0.000368883 
0.000176942 
0.0004641 
0.000610824 
0.000462505 
3.21672e-05 
0.000149766 
0.000257646 
0.000218627 
0.000183782 
0.000103039 
0.000171776 
0.000209716 
0.000315352 
0.00025559 
0.000237111 
0.000347551 
0.000481239 
0.000437106 
0.000346174 
0.000365814 
0.000240635 
0.000286827 
0.000235134 
0.000157406 
0.000195142 
0.000165683 
0.000115335 
7.1298e-05 
0.000317271 
0.000208441 
0.000155956 
0.000165503 
0.000538304 
0.000174019 
1.09603e-05 
0.000121174 
-0.0019855 
0.000364089 
-0.00549649 
-0.00856381 
-0.0066516 
-0.0188042 
-0.019914 
-0.0187951 
-0.000459739 
-0.00557072 
-0.00993359 
-0.00518272 
-0.0103574 
-0.00282816 
-0.00641511 
-0.00692167 
-0.00395986 
-0.00478895 
-0.00131916 
-0.00318284 
-0.00327451 
-0.00595492 
-0.00590594 
-0.0250414 
-0.00399828 
0.00334237 
-0.0093569 
-0.00403633 
-0.00550317 
-0.00452413 
0.00202066 
0.00284754 
-0.00645237 
-0.00424491 
-0.00100856 
0.000144313 
0.000294847 
0.000352077 
0.00042527 
0.000428404 
0.000114782 
0.000250557 
0.000331034 
0.000210776 
-7.48301e-05 
3.24852e-05 
5.19317e-05 
-4.9326e-05 
0.000442565 
0.000385269 
0.000289352 
0.000177872 
0.000166034 
0.0002682 
0.000119191 
-7.29078e-05 
-3.92225e-05 
-3.84188e-07 
-0.000100711 
-0.00014956 
9.65584e-05 
-0.000152038 
-0.000187991 
-0.00371063 
-0.000430021 
0.001398 
-0.0113544 
-0.0148137 
-0.0168911 
-0.0157558 
-0.00242022 
-0.0120204 
-0.0140202 
-0.0028564 
0.00153601 
-0.00230506 
-0.00354021 
-0.00290224 
-0.00864356 
-0.0120518 
-0.00490536 
-0.00317877 
0.000579481 
-0.00223129 
-0.0017119 
0.0053291 
0.0028814 
0.00208594 
0.00559331 
0.00692201 
0.000563133 
0.000604805 
0.000602584 
0.000395405 
0.000460545 
0.000296645 
7.2457e-05 
0.000123668 
0.000143088 
6.34161e-05 
0.000142999 
0.00031464 
0.000600828 
0.000587785 
0.000534846 
0.000552314 
0.000368703 
0.00052304 
0.000498442 
0.000384565 
0.000215277 
0.000270365 
0.000270947 
0.000225394 
0.000385523 
0.000270042 
0.000236402 
0.000335774 
-0.0255354 
-0.0132201 
-0.00494297 
-0.017952 
-0.00415263 
-0.00775289 
-0.0105188 
-0.0101293 
0.00241988 
-0.000262159 
-0.00327282 
-0.00260523 
-0.00381551 
-0.00426106 
-0.00714168 
-0.0151379 
-0.0241756 
-0.013402 
-0.00823007 
-0.00892444 
-0.0101081 
-0.0159223 
-0.00769236 
-0.00406673 
-0.00451557 
-0.00516156 
-0.0049766 
-0.00924576 
-0.00319908 
-0.00327538 
-0.00379151 
-0.0216553 
0.000169277 
0.000291796 
0.000202153 
-4.53328e-05 
-4.12418e-05 
-8.42851e-05 
-0.000184798 
-0.000125319 
-5.95139e-05 
0.000249811 
0.000358701 
0.000319935 
0.000314854 
-5.6572e-07 
0.000108989 
0.000176824 
0.000110947 
7.5154e-05 
6.19503e-05 
9.79083e-05 
0.000172582 
-0.00160697 
-0.0120281 
-0.0238957 
-0.00383977 
0.00502888 
0.00100499 
0.00428526 
0.00178587 
0.00146746 
0.00240023 
-0.00187997 
-0.00656114 
-0.00604947 
-0.00489185 
-0.0174213 
-0.0268978 
-0.00195572 
-0.0015954 
-0.00352628 
-0.0150862 
-0.00684659 
-0.00263153 
-0.00411392 
-0.00861573 
ITEM: TIMESTEP
2400000
ITEM: NUMBER OF ATOMS
896
ITEM: BOX BOUNDS pp pp ff
-1.7153631884999999e+01 1.8003017117999999e+01
-1.7855467918999999e+01 1.7553981017000002e+01
-3.4618715923000003e+01 3.4618715923000003e+01
ITEM: ATOMS q 
-0.000446782 
-0.000842871 
-2.63064e-05 
0.000250476 
0.0003028 
3.53789e-06 
0.000220721 
0.000462368 
0.000224005 
0.000202575 
0.000398135 
0.000537429 
0.000100156 
0.000364491 
0.000306021 
0.000232958 
0.000123563 
0.000115476 
0.000552652 
0.000368435 
0.000247949 
0.000229192 
0.000646629 
0.000564012 
0.000345962 
0.000228034 
0.000448891 
0.000274931 
-0.0105514 
-0.0126187 
-0.00689702 
-0.00716942 
-0.00707964 
-0.00590033 
-0.0118856 
-0.0159817 
-0.0114139 
-0.0102782 
-0.0184433 
-0.0265012 
-0.0101532 
-0.018652 
-0.0034381 
-0.00140723 
0.000895753 
-0.00962449 
-0.00430471 
-0.00337699 
-0.00988391 
-0.00802178 
-0.000815805 
0.000430504 
0.00108207 
-9.8002e-05 
0.00035253 
-0.000261749 
-5.09198e-05 
0.000228034 
0.000279253 
-9.76195e-05 
-0.000108287 
0.000217381 
0.000189743 
0.00018126 
6.07386e-05 
0.000127308 
0.000162832 
0.000359245 
0.000294805 
0.000216668 
0.000226784 
0.000297571 
0.000274056 
0.000163729 
0.000159554 
0.000153408 
0.00020249 
0.000196253 
0.000153177 
0.000190915 
0.000537349 
-0.00772186 
-0.00371897 
-0.032491 
-0.00464822 
-0.00144152 
-0.00369253 
-0.010778 
-0.0109293 
-0.00341812 
-0.00259709 
-0.00144202 
-0.00212303 
-0.00364834 
-0.0049293 
-0.0046394 
-0.00345521 
-0.00734708 
-0.0106114 
-0.00118649 
-1.17476e-05 
-0.000917453 
-0.00232338 
-0.00153225 
-0.00247461 
9.65064e-05 
3.76064e-05 
0.000104752 
0.000246692 
0.000150585 
0.00015072 
0.000248179 
0.00035644 
0.000148922 
0.000169415 
0.000296413 
0.000468136 
0.000363225 
0.000533945 
0.000422654 
0.000344496 
0.000400393 
0.000581721 
0.0005772 
0.000666553 
0.00083365 
0.000701317 
0.000577773 
0.000611654 
0.000608776 
0.000449031 
0.000560376 
0.000456204 
-0.00294897 
-0.000863667 
0.00267898 
-0.000938751 
-0.000205456 
-0.0056071 
-0.00757347 
-0.00473457 
-0.00601709 
-0.00989037 
-0.0118732 
0.000896925 
-0.0055312 
-0.00894316 
-0.0136975 
-0.00872257 
-0.0199956 
-0.0158914 
-0.00830825 
-0.00324404 
-0.0183327 
-0.0374516 
-0.019144 
-0.00988569 
-0.0116605 
-0.010891 
-0.00782629 
-0.00441526 
0.000437798 
0.000656428 
0.0003866 
0.000534484 
0.000639879 
0.000507639 
0.000311497 
0.000410102 
0.000470537 
0.000510712 
0.00111957 
0.00104702 
0.00129789 
0.00366007 
0.00059764 
0.000498426 
0.000391894 
0.000463257 
0.000490617 
0.000496543 
0.000487623 
0.000340942 
0.0004158 
0.000467046 
0.00205715 
0.000346766 
0.000398151 
0.000512633 
-0.0124511 
-0.00918882 
-0.00264939 
-0.00159988 
-0.0234415 
-0.0168602 
-0.0119106 
-0.0215198 
-0.00985072 
0.000671407 
-0.0103505 
-0.0107277 
-0.00417373 
-0.00553103 
0.000927218 
-0.00278667 
-0.00410672 
-0.00557968 
-0.00888355 
-0.00327819 
-0.00858414 
-0.0223567 
-0.00548504 
-0.00989266 
-0.010714 
-0.0102279 
-0.00637008 
-0.0106039 
0.000401776 
0.000202938 
0.000164596 
0.000197565 
0.000509064 
0.000404971 
0.000237666 
0.000189423 
0.00032546 
0.000305161 
0.000165818 
7.55418e-05 
0.000265664 
0.000131383 
0.000205246 
0.000251379 
0.000292003 
0.000250542 
0.000168828 
0.000216697 
0.000230857 
0.000248665 
5.6873e-05 
0.00013047 
0.000208183 
0.000180409 
3.34788e-05 
7.12019e-05 
0.000151485 
0.000241379 
0.000217634 
-0.00664759 
-0.01214 
-0.00434412 
-0.00455607 
-0.000111899 
-0.00785897 
-0.00708895 
-0.00519551 
-0.00469648 
-0.00417734 
-0.00376965 
-0.00171068 
-0.00182445 
-0.00151782 
0.000197262 
4.51902e-05 
0.000443544 
-0.00456557 
-0.0214789 
-0.00795246 
-0.00180467 
-0.00542817 
-0.00380202 
-0.00376031 
-0.00874334 
-0.0012743 
-0.00529674 
-0.0112116 
-0.0077842 
-0.000813189 
-0.0037833 
0.000435448 
0.000121927 
0.000530813 
0.000416028 
0.000242445 
0.000186483 
0.000481057 
0.000440745 
0.000272907 
0.000177394 
0.000601299 
0.000496317 
0.000329288 
0.000201375 
3.76569e-05 
4.44142e-05 
6.49286e-05 
3.19674e-05 
8.98894e-07 
-5.45321e-05 
6.79687e-06 
-2.26284e-05 
-0.00010473 
-0.000117884 
-3.85993e-05 
-7.69314e-05 
-0.000118847 
-4.15171e-05 
6.76021e-05 
-7.41502e-05 
-0.000130344 
5.55852e-05 
-0.0127429 
-0.0160275 
-0.00946084 
-0.0213538 
-0.00544937 
0.000237551 
-0.0081168 
-0.00652785 
-0.0016529 
-0.00341338 
-0.00702192 
-0.0024067 
-0.00190614 
-0.000726197 
-0.0154025 
-0.0078716 
-0.000429252 
0.00418358 
0.000255007 
-0.00204439 
-0.00160559 
-0.000893318 
-0.00104004 
7.70755e-05 
0.0031197 
0.00347654 
0.00361605 
0.00354223 
0.00441076 
0.0049385 
-0.000860409 
-0.00431786 
4.24836e-05 
-8.04038e-05 
-1.54444e-05 
0.000139035 
7.53795e-05 
0.000115109 
0.000211109 
0.000145443 
0.000147857 
0.000128845 
0.000124509 
-3.1386e-05 
-5.95139e-05 
-0.000107108 
3.01935e-05 
0.000147318 
8.94977e-05 
0.000205271 
0.00051062 
0.000164646 
0.000193016 
0.000309908 
0.000388102 
0.000148671 
0.000158372 
-0.00105665 
0.00451171 
0.00287378 
0.000499194 
-0.00345895 
-0.002023 
-0.00138582 
-0.00340606 
-0.0036202 
-0.00107906 
-0.00386814 
-0.00477887 
-0.00373506 
-0.00403108 
0.00481004 
0.00460421 
-0.0079024 
-0.00970593 
-0.00746186 
-0.00468628 
-0.0129141 
-0.0315836 
-0.00138301 
-0.00529261 
-0.0188363 
-0.00902995 
-0.00370176 
-0.00310971 
7.45282e-05 
-6.0584e-06 
-5.41549e-06 
-6.27012e-05 
-0.000138194 
-0.000132142 
-8.06884e-05 
-3.46048e-05 
-8.0482e-06 
0.000168797 
9.96834e-05 
9.50088e-05 
-7.61928e-06 
7.44687e-05 
8.55481e-05 
3.10304e-05 
1.64418e-05 
2.29725e-05 
9.48826e-05 
0.000218945 
0.000348052 
0.000293656 
0.000423828 
0.000479328 
-0.0015965 
-0.00310385 
0.000642871 
0.000785333 
-0.0018374 
-0.00149161 
0.00617039 
0.00382844 
0.00457627 
0.00479324 
-0.0051363 
0.00191201 
0.000594294 
-0.00832204 
-0.00319651 
-0.00395873 
-0.0025034 
-0.00348994 
-0.000728581 
-0.0167398 
-0.00238708 
0.000313904 
-0.00159048 
-0.00560697 
-0.0221754 
-0.0211284 
-0.00653283 
-0.00427877 
0.000150872 
0.000100884 
0.000140988 
0.000131469 
0.000173554 
3.84698e-05 
6.45681e-05 
6.44519e-05 
0.000265915 
5.30664e-05 
5.16706e-05 
9.90439e-05 
0.000169132 
6.04576e-05 
6.20795e-05 
0.000106383 
0.000209296 
0.000231032 
0.000536659 
0.000589981 
0.000109404 
0.000187437 
0.000584189 
0.000695446 
0.000178514 
0.000185675 
0.000355 
0.000396981 
0.000199256 
0.000230873 
0.000282189 
0.000238012 
-0.00196929 
-0.0049196 
-0.00740501 
-0.00509551 
-0.00319206 
-0.0013304 
-0.000720415 
0.00143205 
-0.00234744 
-0.00221995 
-0.000844974 
-0.00480309 
0.00356583 
-0.000765823 
-0.00520378 
-0.00622599 
-0.00374356 
-0.00401846 
-0.00267372 
-0.00118897 
-0.00446433 
-0.00545791 
-0.00632714 
-0.00491302 
-0.0122851 
-0.0068973 
-0.00733251 
-0.00533317 
-3.04133e-05 
3.75112e-05 
9.81821e-05 
0.000231741 
-0.000194903 
-9.66277e-05 
0.000254261 
0.000421254 
-0.000830597 
-0.000156676 
0.000275485 
0.000244741 
0.000214318 
0.000188675 
0.000186457 
0.000119021 
0.000397276 
0.00024526 
0.00014342 
8.532e-05 
0.00039801 
0.000331267 
0.000134585 
8.56041e-05 
-0.0165626 
0.00131249 
-0.00393216 
-0.00215333 
-0.0214265 
-0.0147241 
-0.00543251 
-0.0104121 
-0.0315977 
-0.00926436 
-0.0204971 
-0.0158146 
-0.00227515 
-0.004439 
-0.00357092 
-0.00431428 
-0.00264762 
-0.00251578 
-0.00361954 
-0.00251485 
0.000678298 
0.00688899 
0.00813224 
0.0277473 
-0.170798 
0.00136758 
0.00840696 
0.0261365 
0.00396367 
0.000438331 
0.00122889 
0.00142811 
0.000480816 
0.000210254 
0.000306994 
0.000258618 
0.000155768 
-0.00296804 
-0.00129258 
-0.000522197 
-4.81251e-05 
0.00240338 
-0.000750329 
-0.00032842 
0.000517684 
0.000459225 
0.000467477 
0.000413146 
0.00035386 
0.000172535 
0.000242705 
0.000313657 
0.000287654 
-0.00137693 
-0.0128607 
-0.0089991 
-0.00416212 
0.0482788 
0.0453807 
0.00564681 
-0.0965228 
-0.00762236 
0.0458111 
0.0138172 
-0.00957836 
-0.00679694 
-0.00428218 
-0.00322422 
-0.00440289 
-0.00442783 
-0.0019595 
-0.00148257 
-0.00232743 
-0.0207491 
-0.0132836 
-0.0164733 
-0.0150483 
-0.0302314 
-0.0130269 
-0.00546472 
-0.00791469 
-0.00508596 
-0.00408299 
-0.00718949 
-0.00854074 
7.64045e-05 
0.000120102 
0.000111147 
6.13568e-05 
2.13952e-05 
3.29566e-05 
2.53517e-05 
8.72968e-05 
-3.56667e-05 
-1.53154e-05 
5.79606e-05 
9.84855e-05 
9.11604e-05 
0.00015059 
0.000199752 
0.000143388 
0.000132114 
9.76436e-05 
9.94455e-05 
8.11992e-05 
0.000225305 
0.000173139 
0.00011924 
0.00018856 
-0.000479866 
-0.000979952 
0.00721106 
0.00128841 
-0.00409558 
-0.00253562 
2.39961e-05 
0.000748185 
0.00113265 
-0.00245002 
-0.00405472 
0.000332725 
-0.00319397 
-0.00779932 
-0.0114383 
-0.00196403 
-0.00370625 
-0.00629302 
-0.00295996 
-0.00389869 
-0.000112816 
-0.00378794 
-0.000891061 
-0.00313029 
0.00054188 
0.000497229 
0.000299649 
0.000115745 
0.000345485 
0.00034505 
0.000161029 
6.42361e-05 
0.000332303 
0.000261089 
0.000161575 
0.000253695 
0.000438162 
0.000446803 
0.000471672 
0.000497046 
-3.44439e-05 
-7.52439e-05 
-5.46036e-05 
-1.10458e-05 
1.7141e-05 
-2.53952e-05 
-8.79571e-06 
5.38535e-05 
0.000190535 
8.03871e-05 
0.000107318 
0.000152866 
0.000331258 
0.000238168 
0.000175452 
0.000140492 
5.40011e-05 
6.99008e-05 
0.00012227 
8.12599e-05 
-0.0129379 
-0.00555718 
-0.00418058 
-0.0097415 
-0.0088017 
-0.00687383 
0.00255933 
0.00233195 
-0.000619111 
-0.00136176 
0.00169112 
0.0013294 
-0.00677217 
0.00148608 
0.000777069 
-0.00514024 
-0.0197984 
-0.0174223 
-0.00614446 
-0.00597081 
0.00186816 
0.000126335 
-0.0045748 
0.000355504 
-0.00197087 
-0.00142217 
-0.000602836 
-0.000938483 
-0.00321755 
-0.00281168 
-0.00432814 
-0.0038812 
-0.00561977 
-0.00390071 
-0.00438351 
-0.00392448 
0.000179102 
0.000410776 
0.000508998 
0.000237294 
3.5589e-05 
7.53755e-05 
4.48285e-05 
1.65242e-06 
0.000118856 
2.18791e-05 
2.31203e-05 
0.00011732 
0.000153017 
0.0002307 
0.000121075 
1.53546e-05 
5.94275e-05 
4.22492e-05 
2.27806e-05 
5.65325e-05 
0.000305893 
0.000258965 
0.000253378 
0.000221366 
-4.40415e-05 
-5.02714e-05 
2.07166e-06 
-0.000884784 
-0.00134294 
-0.00270295 
-0.00138622 
-0.0246565 
-0.0143197 
-0.00031536 
0.00156645 
0.00328471 
0.00235413 
0.00132048 
-0.000683422 
0.00041859 
-0.000900426 
-0.00927698 
0.00143704 
-0.0044797 
-0.00560439 
0.00319073 
-0.00127256 
0.000421828 
0.00141084 
0.00339027 
-0.0339931 
-0.0095837 
-0.0064329 
-0.0080258 
0.00010271 
0.000197406 
0.000257909 
7.48581e-05 
0.000165631 
0.000218944 
8.41736e-05 
0.000131402 
0.00016248 
7.48351e-05 
5.46134e-05 
4.59378e-05 
0.000385339 
0.000476718 
0.000461987 
0.000375113 
0.000375388 
0.00041548 
0.000377211 
0.000536615 
0.000369479 
0.000504808 
0.00063536 
0.000670053 
0.000138836 
0.000340357 
0.000420361 
0.000358836 
-3.18573e-05 
-0.00711379 
-0.00771294 
-0.0111202 
-0.000316791 
-0.00200395 
-0.00718656 
-0.00859804 
-0.00143294 
-0.000297749 
-0.00484028 
-0.00919959 
0.000843202 
0.00101568 
-0.000426307 
-0.00189643 
-0.0103755 
-0.0123358 
-0.00639746 
0.00094329 
-0.0127862 
-0.0053036 
0.000336649 
-0.00452161 
-0.0226237 
-0.0260785 
-0.0127942 
-0.0124762 
-0.00226063 
-0.0085957 
-0.00881631 
-0.00205224 
-1.59004e-05 
-3.06726e-05 
5.93408e-05 
-0.000105983 
-1.63519e-05 
-2.92293e-05 
-9.21914e-05 
-0.00018747 
-0.000138346 
0.000188016 
0.000178801 
0.000235937 
0.00031365 
0.000133114 
0.000243247 
0.000278423 
0.000294441 
-6.60205e-05 
6.10147e-05 
0.000192743 
-5.60863e-05 
0.00705747 
0.00256491 
-0.00236402 
-0.00539548 
0.0038928 
0.000395696 
-0.0129918 
-0.00745702 
0.00783442 
0.0118729 
0.0072998 
0.00203824 
-0.00420667 
-0.0066422 
-0.00394601 
-0.0143213 
-0.00702421 
-0.00554328 
-0.0120426 
-0.0257195 
-0.0018847 
-0.00439152 
-0.00465916 
-0.032321 
ITEM: TIMESTEP
2600000
ITEM: NUMBER OF ATOMS
896
ITEM: BOX BOUNDS pp pp ff
-1.7153631884999999e+01 1.8003017117999999e+01
-1.7855467918999999e+01 1.7553981017000002e+01
-3.4618715923000003e+01 3.4618715923000003e+01
ITEM: ATOMS q 
-0.000427529 
-0.000669464 
-0.000148075 
0.000128152 
-3.20419e-06 
-9.97598e-05 
0.000150781 
0.000401254 
8.06379e-05 
0.000137023 
0.000404768 
0.00035995 
5.96036e-05 
0.000190891 
0.000288892 
0.000233112 
0.00039625 
0.000504993 
0.000531663 
0.000506405 
0.000604438 
0.000477056 
0.000319394 
0.000469244 
0.000372857 
0.000175311 
0.00015233 
0.000100895 
-0.0104963 
-0.00957411 
6.17658e-06 
-0.00552145 
-0.012915 
-0.0034482 
-0.00799327 
-0.0108977 
-0.013374 
-0.0214479 
-0.0180126 
-0.00671435 
-0.00702481 
-0.005849 
-0.00958277 
-0.0123111 
-0.0193086 
-0.0232816 
-0.02408 
-0.0173366 
-0.000273259 
-0.00956978 
-0.00663125 
-0.000212972 
-0.00091225 
-2.43161e-05 
0.000143392 
-0.00019645 
-4.84853e-05 
7.84094e-05 
0.000101346 
-0.000202156 
-0.00013857 
0.000108418 
0.000141916 
-0.000102627 
3.52656e-05 
0.00014556 
2.86876e-05 
0.000130512 
9.54976e-05 
2.66801e-05 
1.12333e-05 
2.48958e-05 
2.43904e-05 
2.67805e-05 
-3.71326e-05 
-7.41042e-05 
-8.19616e-05 
-7.21068e-05 
-8.42078e-05 
-0.000142871 
-0.000149047 
-0.00568458 
-0.00478334 
-0.0133834 
-0.00402218 
-0.0052451 
-0.000793636 
-0.0181998 
-0.00855218 
-0.00529936 
-0.0022929 
0.00172517 
-0.0139161 
-0.0032467 
0.00209291 
-0.00315177 
0.00626748 
-0.00053201 
-0.00638389 
-0.000125088 
0.000876478 
-0.00201459 
0.0055746 
0.00184264 
0.000897891 
0.000374782 
0.000224979 
1.56146e-05 
-6.4767e-05 
0.000257909 
0.000203094 
-4.66e-05 
-2.83029e-05 
0.000167802 
0.000129217 
6.87747e-05 
0.00029249 
0.0002392 
0.000415503 
-8.75127e-05 
-2.49922e-06 
-2.34512e-06 
-3.10374e-05 
-2.31e-05 
-7.76636e-05 
-3.74571e-05 
2.52997e-05 
0.000314979 
9.12484e-05 
7.75692e-05 
0.000107607 
0.000423043 
0.000217589 
-0.0165315 
-0.00543291 
-0.00351679 
0.00346074 
0.000944272 
8.3241e-05 
0.000596015 
0.00253837 
0.0033309 
0.00106658 
-0.000114577 
-0.00338638 
1.29912e-05 
-0.00168516 
-0.00951469 
-0.00647746 
-0.02491 
0.000507769 
-0.00153191 
-0.00166873 
-0.000748956 
0.000419098 
-0.00181276 
-0.00472942 
-0.00150087 
-0.00461421 
-0.00484417 
-0.000440459 
0.000232597 
0.000607445 
0.000207879 
0.000342933 
0.000543817 
0.000436588 
-1.75652e-05 
0.000176329 
0.000248704 
0.000216712 
-0.00012663 
0.000231349 
0.000229112 
0.00397875 
0.000631913 
0.000197487 
0.000389031 
0.00047458 
0.000275487 
0.000163104 
0.000195203 
0.000183534 
0.000144292 
0.000111617 
0.00219153 
-0.000135297 
8.40341e-05 
0.000101306 
-0.00608794 
-0.00872579 
-0.000152323 
-1.51769e-05 
-0.0123233 
-0.0243479 
-0.0139001 
-0.0211355 
-0.0188189 
-0.00911359 
-0.00236903 
-0.00652334 
-0.00616805 
-0.00275029 
0.00122945 
-0.00486213 
-0.00659106 
0.00047707 
-0.0103286 
-0.00567017 
-0.00838197 
-0.00198546 
-0.000329944 
-0.00204352 
-0.00709369 
-0.0174636 
-0.00566946 
-0.00401097 
-2.19835e-06 
1.92509e-05 
1.43986e-05 
0.000111023 
0.000104052 
7.46308e-05 
0.000183695 
0.000333258 
9.20081e-05 
0.000134978 
0.000248579 
0.000265213 
9.69449e-05 
0.000157951 
0.00014757 
7.12773e-05 
0.000157606 
0.000171749 
0.000471978 
0.000324735 
0.000277304 
0.000289767 
0.000423054 
0.000522158 
0.000441304 
0.000323906 
0.000370117 
0.000378913 
0.000162745 
0.000110141 
0.000119596 
4.2989e-05 
-0.00581596 
-0.00271557 
-0.00142833 
-0.0028316 
0.00273314 
-0.00224286 
-0.00654596 
-0.00356982 
-0.0120584 
-0.0218131 
-0.00285718 
-0.00575355 
-0.00919902 
-0.00914703 
-0.00293547 