ITEM: TIMESTEP
2000000
ITEM: NUMBER OF ATOMS
896
ITEM: BOX BOUNDS pp pp ff
-1.7153631884999999e+01 1.8003017117999999e+01
-1.7855467918999999e+01 1.7553981017000002e+01
-3.4618715923000003e+01 3.4618715923000003e+01
ITEM: ATOMS q x y z 
0 -15.4256 -16.978 -34.1187 
0 -16.6536 -16.269 -34.1187 
0 -16.6536 -14.851 -34.1187 
0 -15.4256 -14.142 -34.1187 
0 -12.9696 -16.978 -34.1187 
0 -14.1976 -16.269 -34.1187 
0 -14.1976 -14.851 -34.1187 
0 -12.9696 -14.142 -34.1187 
0 -10.5135 -16.978 -34.1187 
0 -11.7415 -16.269 -34.1187 
0 -11.7415 -14.851 -34.1187 
0 -10.5135 -14.142 -34.1187 
0 -9.28549 -16.269 -34.1187 
0 -9.28549 -14.851 -34.1187 
0 -15.4256 -12.724 -34.1187 
0 -16.6536 -12.015 -34.1187 
0 -16.6536 -10.597 -34.1187 
0 -15.4256 -9.88802 -34.1187 
0 -12.9696 -12.724 -34.1187 
0 -14.1976 -12.015 -34.1187 
0 -14.1976 -10.597 -34.1187 
0 -12.9696 -9.88802 -34.1187 
0 -10.5135 -12.724 -34.1187 
0 -11.7415 -12.015 -34.1187 
0 -11.7415 -10.597 -34.1187 
0 -10.5135 -9.88802 -34.1187 
0 -9.28549 -12.015 -34.1187 
0 -9.28549 -10.597 -34.1187 
0 -15.4256 -15.56 -30.7687 
0 -16.6536 -14.851 -30.7687 
0 -16.6536 -13.433 -30.7687 
0 -15.4256 -12.724 -30.7687 
0 -12.9696 -15.56 -30.7687 
0 -14.1976 -14.851 -30.7687 
0 -14.1976 -13.433 -30.7687 
0 -12.9696 -12.724 -30.7687 
0 -10.5135 -15.56 -30.7687 
0 -11.7415 -14.851 -30.7687 
0 -11.7415 -13.433 -30.7687 
0 -10.5135 -12.724 -30.7687 
0 -9.28549 -14.851 -30.7687 
0 -9.28549 -13.433 -30.7687 
0 -15.4256 -11.306 -30.7687 
0 -16.6536 -10.597 -30.7687 
0 -16.6536 -9.17902 -30.7687 
0 -12.9696 -11.306 -30.7687 
0 -14.1976 -10.597 -30.7687 
0 -14.1976 -9.17902 -30.7687 
0 -10.5135 -11.306 -30.7687 
0 -11.7415 -10.597 -30.7687 
0 -11.7415 -9.17902 -30.7687 
0 -9.28549 -10.597 -30.7687 
0 -9.28549 -9.17902 -30.7687 
0 -8.05746 -16.978 -34.1187 
0 -8.05746 -14.142 -34.1187 
0 -5.60142 -16.978 -34.1187 
0 -6.82944 -16.269 -34.1187 
0 -6.82944 -14.851 -34.1187 
0 -5.60142 -14.142 -34.1187 
0 -3.14537 -16.978 -34.1187 
0 -4.37339 -16.269 -34.1187 
0 -4.37339 -14.851 -34.1187 
0 -3.14537 -14.142 -34.1187 
0 -0.68932 -16.978 -34.1187 
0 -1.91734 -16.269 -34.1187 
0 -1.91734 -14.851 -34.1187 
0 -0.68932 -14.142 -34.1187 
0 -8.05746 -12.724 -34.1187 
0 -8.05746 -9.88802 -34.1187 
0 -5.60142 -12.724 -34.1187 
0 -6.82944 -12.015 -34.1187 
0 -6.82944 -10.597 -34.1187 
0 -5.60142 -9.88802 -34.1187 
0 -3.14537 -12.724 -34.1187 
0 -4.37339 -12.015 -34.1187 
0 -4.37339 -10.597 -34.1187 
0 -3.14537 -9.88802 -34.1187 
0 -0.68932 -12.724 -34.1187 
0 -1.91734 -12.015 -34.1187 
0 -1.91734 -10.597 -34.1187 
0 -0.68932 -9.88802 -34.1187 
0 -8.05746 -15.56 -30.7687 
0 -8.05746 -12.724 -30.7687 
0 -5.60142 -15.56 -30.7687 
0 -6.82944 -14.851 -30.7687 
0 -6.82944 -13.433 -30.7687 
0 -5.60142 -12.724 -30.7687 
0 -3.14537 -15.56 -30.7687 
0 -4.37339 -14.851 -30.7687 
0 -4.37339 -13.433 -30.7687 
0 -3.14537 -12.724 -30.7687 
0 -0.68932 -15.56 -30.7687 
0 -1.91734 -14.851 -30.7687 
0 -1.91734 -13.433 -30.7687 
0 -0.68932 -12.724 -30.7687 
0 -8.05746 -11.306 -30.7687 
0 -5.60142 -11.306 -30.7687 
0 -6.82944 -10.597 -30.7687 
0 -6.82944 -9.17902 -30.7687 
0 -3.14537 -11.306 -30.7687 
0 -4.37339 -10.597 -30.7687 
0 -4.37339 -9.17902 -30.7687 
0 -0.68932 -11.306 -30.7687 
0 -1.91734 -10.597 -30.7687 
0 -1.91734 -9.17902 -30.7687 
0 -15.4256 -8.47002 -34.1187 
0 -16.6536 -7.76102 -34.1187 
0 -16.6536 -6.34302 -34.1187 
0 -15.4256 -5.63402 -34.1187 
0 -12.9696 -8.47002 -34.1187 
0 -14.1976 -7.76102 -34.1187 
0 -14.1976 -6.34302 -34.1187 
0 -12.9696 -5.63402 -34.1187 
0 -10.5135 -8.47002 -34.1187 
0 -11.7415 -7.76102 -34.1187 
0 -11.7415 -6.34302 -34.1187 
0 -10.5135 -5.63402 -34.1187 
0 -9.28549 -7.76102 -34.1187 
0 -9.28549 -6.34302 -34.1187 
0 -15.4256 -4.21602 -34.1187 
0 -16.6536 -3.50702 -34.1187 
0 -16.6536 -2.08902 -34.1187 
0 -15.4256 -1.38002 -34.1187 
0 -12.9696 -4.21602 -34.1187 
0 -14.1976 -3.50702 -34.1187 
0 -14.1976 -2.08902 -34.1187 
0 -12.9696 -1.38002 -34.1187 
0 -10.5135 -4.21602 -34.1187 
0 -11.7415 -3.50702 -34.1187 
0 -11.7415 -2.08902 -34.1187 
0 -10.5135 -1.38002 -34.1187 
0 -9.28549 -3.50702 -34.1187 
0 -9.28549 -2.08902 -34.1187 
0 -15.4256 -8.47002 -30.7687 
0 -12.9696 -8.47002 -30.7687 
0 -10.5135 -8.47002 -30.7687 
0 -15.4256 -7.05202 -30.7687 
0 -16.6536 -6.34302 -30.7687 
0 -16.6536 -4.92502 -30.7687 
0 -15.4256 -4.21602 -30.7687 
0 -12.9696 -7.05202 -30.7687 
0 -14.1976 -6.34302 -30.7687 
0 -14.1976 -4.92502 -30.7687 
0 -12.9696 -4.21602 -30.7687 
0 -10.5135 -7.05202 -30.7687 
0 -11.7415 -6.34302 -30.7687 
0 -11.7415 -4.92502 -30.7687 
0 -10.5135 -4.21602 -30.7687 
0 -9.28549 -6.34302 -30.7687 
0 -9.28549 -4.92502 -30.7687 
0 -15.4256 -2.79802 -30.7687 
0 -16.6536 -2.08902 -30.7687 
0 -16.6536 -0.671021 -30.7687 
0 -12.9696 -2.79802 -30.7687 
0 -14.1976 -2.08902 -30.7687 
0 -14.1976 -0.671021 -30.7687 
0 -10.5135 -2.79802 -30.7687 
0 -11.7415 -2.08902 -30.7687 
0 -11.7415 -0.671021 -30.7687 
0 -9.28549 -2.08902 -30.7687 
0 -9.28549 -0.671021 -30.7687 
0 -8.05746 -8.47002 -34.1187 
0 -8.05746 -5.63402 -34.1187 
0 -5.60142 -8.47002 -34.1187 
0 -6.82944 -7.76102 -34.1187 
0 -6.82944 -6.34302 -34.1187 
0 -5.60142 -5.63402 -34.1187 
0 -3.14537 -8.47002 -34.1187 
0 -4.37339 -7.76102 -34.1187 
0 -4.37339 -6.34302 -34.1187 
0 -3.14537 -5.63402 -34.1187 
0 -0.68932 -8.47002 -34.1187 
0 -1.91734 -7.76102 -34.1187 
0 -1.91734 -6.34302 -34.1187 
0 -0.68932 -5.63402 -34.1187 
0 -8.05746 -4.21602 -34.1187 
0 -8.05746 -1.38002 -34.1187 
0 -5.60142 -4.21602 -34.1187 
0 -6.82944 -3.50702 -34.1187 
0 -6.82944 -2.08902 -34.1187 
0 -5.60142 -1.38002 -34.1187 
0 -3.14537 -4.21602 -34.1187 
0 -4.37339 -3.50702 -34.1187 
0 -4.37339 -2.08902 -34.1187 
0 -3.14537 -1.38002 -34.1187 
0 -0.68932 -4.21602 -34.1187 
0 -1.91734 -3.50702 -34.1187 
0 -1.91734 -2.08902 -34.1187 
0 -0.68932 -1.38002 -34.1187 
0 -8.05746 -8.47002 -30.7687 
0 -5.60142 -8.47002 -30.7687 
0 -3.14537 -8.47002 -30.7687 
0 -0.68932 -8.47002 -30.7687 
0 -8.05746 -7.05202 -30.7687 
0 -8.05746 -4.21602 -30.7687 
0 -5.60142 -7.05202 -30.7687 
0 -6.82944 -6.34302 -30.7687 
0 -6.82944 -4.92502 -30.7687 
0 -5.60142 -4.21602 -30.7687 
0 -3.14537 -7.05202 -30.7687 
0 -4.37339 -6.34302 -30.7687 
0 -4.37339 -4.92502 -30.7687 
0 -3.14537 -4.21602 -30.7687 
0 -0.68932 -7.05202 -30.7687 
0 -1.91734 -6.34302 -30.7687 
0 -1.91734 -4.92502 -30.7687 
0 -0.68932 -4.21602 -30.7687 
0 -8.05746 -2.79802 -30.7687 
0 -5.60142 -2.79802 -30.7687 
0 -6.82944 -2.08902 -30.7687 
0 -6.82944 -0.671021 -30.7687 
0 -3.14537 -2.79802 -30.7687 
0 -4.37339 -2.08902 -30.7687 
0 -4.37339 -0.671021 -30.7687 
0 -0.68932 -2.79802 -30.7687 
0 -1.91734 -2.08902 -30.7687 
0 -1.91734 -0.671021 -30.7687 
0 -15.4256 0.037981 -34.1187 
0 -16.6536 0.74698 -34.1187 
0 -16.6536 2.16498 -34.1187 
0 -15.4256 2.87398 -34.1187 
0 -12.9696 0.037981 -34.1187 
0 -14.1976 0.74698 -34.1187 
0 -14.1976 2.16498 -34.1187 
0 -12.9696 2.87398 -34.1187 
0 -10.5135 0.037981 -34.1187 
0 -11.7415 0.74698 -34.1187 
0 -11.7415 2.16498 -34.1187 
0 -10.5135 2.87398 -34.1187 
0 -9.28549 0.74698 -34.1187 
0 -9.28549 2.16498 -34.1187 
0 -15.4256 4.29198 -34.1187 
0 -16.6536 5.00098 -34.1187 
0 -16.6536 6.41898 -34.1187 
0 -15.4256 7.12798 -34.1187 
0 -12.9696 4.29198 -34.1187 
0 -14.1976 5.00098 -34.1187 
0 -14.1976 6.41898 -34.1187 
0 -12.9696 7.12798 -34.1187 
0 -10.5135 4.29198 -34.1187 
0 -11.7415 5.00098 -34.1187 
0 -11.7415 6.41898 -34.1187 
0 -10.5135 7.12798 -34.1187 
0 -9.28549 5.00098 -34.1187 
0 -9.28549 6.41898 -34.1187 
0 -15.4256 8.54598 -34.1187 
0 -12.9696 8.54598 -34.1187 
0 -10.5135 8.54598 -34.1187 
0 -15.4256 0.037981 -30.7687 
0 -12.9696 0.037981 -30.7687 
0 -10.5135 0.037981 -30.7687 
0 -15.4256 1.45598 -30.7687 
0 -16.6536 2.16498 -30.7687 
0 -16.6536 3.58298 -30.7687 
0 -15.4256 4.29198 -30.7687 
0 -12.9696 1.45598 -30.7687 
0 -14.1976 2.16498 -30.7687 
0 -14.1976 3.58298 -30.7687 
0 -12.9696 4.29198 -30.7687 
0 -10.5135 1.45598 -30.7687 
0 -11.7415 2.16498 -30.7687 
0 -11.7415 3.58298 -30.7687 
0 -10.5135 4.29198 -30.7687 
0 -9.28549 2.16498 -30.7687 
0 -9.28549 3.58298 -30.7687 
0 -15.4256 5.70998 -30.7687 
0 -16.6536 6.41898 -30.7687 
0 -16.6536 7.83698 -30.7687 
0 -15.4256 8.54598 -30.7687 
0 -12.9696 5.70998 -30.7687 
0 -14.1976 6.41898 -30.7687 
0 -14.1976 7.83698 -30.7687 
0 -12.9696 8.54598 -30.7687 
0 -10.5135 5.70998 -30.7687 
0 -11.7415 6.41898 -30.7687 
0 -11.7415 7.83698 -30.7687 
0 -10.5135 8.54598 -30.7687 
0 -9.28549 6.41898 -30.7687 
0 -9.28549 7.83698 -30.7687 
0 -8.05746 0.037981 -34.1187 
0 -8.05746 2.87398 -34.1187 
0 -5.60142 0.037981 -34.1187 
0 -6.82944 0.74698 -34.1187 
0 -6.82944 2.16498 -34.1187 
0 -5.60142 2.87398 -34.1187 
0 -3.14537 0.037981 -34.1187 
0 -4.37339 0.74698 -34.1187 
0 -4.37339 2.16498 -34.1187 
0 -3.14537 2.87398 -34.1187 
0 -0.68932 0.037981 -34.1187 
0 -1.91734 0.74698 -34.1187 
0 -1.91734 2.16498 -34.1187 
0 -0.68932 2.87398 -34.1187 
0 -8.05746 4.29198 -34.1187 
0 -8.05746 7.12798 -34.1187 
0 -5.60142 4.29198 -34.1187 
0 -6.82944 5.00098 -34.1187 
0 -6.82944 6.41898 -34.1187 
0 -5.60142 7.12798 -34.1187 
0 -3.14537 4.29198 -34.1187 
0 -4.37339 5.00098 -34.1187 
0 -4.37339 6.41898 -34.1187 
0 -3.14537 7.12798 -34.1187 
0 -0.68932 4.29198 -34.1187 
0 -1.91734 5.00098 -34.1187 
0 -1.91734 6.41898 -34.1187 
0 -0.68932 7.12798 -34.1187 
0 -8.05746 8.54598 -34.1187 
0 -5.60142 8.54598 -34.1187 
0 -3.14537 8.54598 -34.1187 
0 -0.68932 8.54598 -34.1187 
0 -8.05746 0.037981 -30.7687 
0 -5.60142 0.037981 -30.7687 
0 -3.14537 0.037981 -30.7687 
0 -0.68932 0.037981 -30.7687 
0 -8.05746 1.45598 -30.7687 
0 -8.05746 4.29198 -30.7687 
0 -5.60142 1.45598 -30.7687 
0 -6.82944 2.16498 -30.7687 
0 -6.82944 3.58298 -30.7687 
0 -5.60142 4.29198 -30.7687 
0 -3.14537 1.45598 -30.7687 
0 -4.37339 2.16498 -30.7687 
0 -4.37339 3.58298 -30.7687 
0 -3.14537 4.29198 -30.7687 
0 -0.68932 1.45598 -30.7687 
0 -1.91734 2.16498 -30.7687 
0 -1.91734 3.58298 -30.7687 
0 -0.68932 4.29198 -30.7687 
0 -8.05746 5.70998 -30.7687 
0 -8.05746 8.54598 -30.7687 
0 -5.60142 5.70998 -30.7687 
0 -6.82944 6.41898 -30.7687 
0 -6.82944 7.83698 -30.7687 
0 -5.60142 8.54598 -30.7687 
0 -3.14537 5.70998 -30.7687 
0 -4.37339 6.41898 -30.7687 
0 -4.37339 7.83698 -30.7687 
0 -3.14537 8.54598 -30.7687 
0 -0.68932 5.70998 -30.7687 
0 -1.91734 6.41898 -30.7687 
0 -1.91734 7.83698 -30.7687 
0 -0.68932 8.54598 -30.7687 
0 -16.6536 9.25498 -34.1187 
0 -16.6536 10.673 -34.1187 
0 -15.4256 11.382 -34.1187 
0 -14.1976 9.25498 -34.1187 
0 -14.1976 10.673 -34.1187 
0 -12.9696 11.382 -34.1187 
0 -11.7415 9.25498 -34.1187 
0 -11.7415 10.673 -34.1187 
0 -10.5135 11.382 -34.1187 
0 -9.28549 9.25498 -34.1187 
0 -9.28549 10.673 -34.1187 
0 -15.4256 12.8 -34.1187 
0 -16.6536 13.509 -34.1187 
0 -16.6536 14.927 -34.1187 
0 -15.4256 15.636 -34.1187 
0 -12.9696 12.8 -34.1187 
0 -14.1976 13.509 -34.1187 
0 -14.1976 14.927 -34.1187 
0 -12.9696 15.636 -34.1187 
0 -10.5135 12.8 -34.1187 
0 -11.7415 13.509 -34.1187 
0 -11.7415 14.927 -34.1187 
0 -10.5135 15.636 -34.1187 
0 -9.28549 13.509 -34.1187 
0 -9.28549 14.927 -34.1187 
0 -15.4256 9.96398 -30.7687 
0 -16.6536 10.673 -30.7687 
0 -16.6536 12.091 -30.7687 
0 -15.4256 12.8 -30.7687 
0 -12.9696 9.96398 -30.7687 
0 -14.1976 10.673 -30.7687 
0 -14.1976 12.091 -30.7687 
0 -12.9696 12.8 -30.7687 
0 -10.5135 9.96398 -30.7687 
0 -11.7415 10.673 -30.7687 
0 -11.7415 12.091 -30.7687 
0 -10.5135 12.8 -30.7687 
0 -9.28549 10.673 -30.7687 
0 -9.28549 12.091 -30.7687 
0 -15.4256 14.218 -30.7687 
0 -16.6536 14.927 -30.7687 
0 -16.6536 16.345 -30.7687 
0 -15.4256 17.054 -30.7687 
0 -12.9696 14.218 -30.7687 
0 -14.1976 14.927 -30.7687 
0 -14.1976 16.345 -30.7687 
0 -12.9696 17.054 -30.7687 
0 -10.5135 14.218 -30.7687 
0 -11.7415 14.927 -30.7687 
0 -11.7415 16.345 -30.7687 
0 -10.5135 17.054 -30.7687 
0 -9.28549 14.927 -30.7687 
0 -9.28549 16.345 -30.7687 
0 -8.05746 11.382 -34.1187 
0 -6.82944 9.25498 -34.1187 
0 -6.82944 10.673 -34.1187 
0 -5.60142 11.382 -34.1187 
0 -4.37339 9.25498 -34.1187 
0 -4.37339 10.673 -34.1187 
0 -3.14537 11.382 -34.1187 
0 -1.91734 9.25498 -34.1187 
0 -1.91734 10.673 -34.1187 
0 -0.68932 11.382 -34.1187 
0 -8.05746 12.8 -34.1187 
0 -8.05746 15.636 -34.1187 
0 -5.60142 12.8 -34.1187 
0 -6.82944 13.509 -34.1187 
0 -6.82944 14.927 -34.1187 
0 -5.60142 15.636 -34.1187 
0 -3.14537 12.8 -34.1187 
0 -4.37339 13.509 -34.1187 
0 -4.37339 14.927 -34.1187 
0 -3.14537 15.636 -34.1187 
0 -0.68932 12.8 -34.1187 
0 -1.91734 13.509 -34.1187 
0 -1.91734 14.927 -34.1187 
0 -0.68932 15.636 -34.1187 
0 -8.05746 9.96398 -30.7687 
0 -8.05746 12.8 -30.7687 
0 -5.60142 9.96398 -30.7687 
0 -6.82944 10.673 -30.7687 
0 -6.82944 12.091 -30.7687 
0 -5.60142 12.8 -30.7687 
0 -3.14537 9.96398 -30.7687 
0 -4.37339 10.673 -30.7687 
0 -4.37339 12.091 -30.7687 
0 -3.14537 12.8 -30.7687 
0 -0.68932 9.96398 -30.7687 
0 -1.91734 10.673 -30.7687 
0 -1.91734 12.091 -30.7687 
0 -0.68932 12.8 -30.7687 
0 -8.05746 14.218 -30.7687 
0 -8.05746 17.054 -30.7687 
0 -5.60142 14.218 -30.7687 
0 -6.82944 14.927 -30.7687 
0 -6.82944 16.345 -30.7687 
0 -5.60142 17.054 -30.7687 
0 -3.14537 14.218 -30.7687 
0 -4.37339 14.927 -30.7687 
0 -4.37339 16.345 -30.7687 
0 -3.14537 17.054 -30.7687 
0 -0.68932 14.218 -30.7687 
0 -1.91734 14.927 -30.7687 
0 -1.91734 16.345 -30.7687 
0 -0.68932 17.054 -30.7687 
0 1.76673 -16.978 -34.1187 
0 0.538705 -16.269 -34.1187 
0 0.538705 -14.851 -34.1187 
0 1.76673 -14.142 -34.1187 
0 4.22278 -16.978 -34.1187 
0 2.99475 -16.269 -34.1187 
0 2.99475 -14.851 -34.1187 
0 4.22278 -14.142 -34.1187 
0 6.67883 -16.978 -34.1187 
0 5.4508 -16.269 -34.1187 
0 5.4508 -14.851 -34.1187 
0 6.67883 -14.142 -34.1187 
0 9.13487 -16.978 -34.1187 
0 7.90685 -16.269 -34.1187 
0 7.90685 -14.851 -34.1187 
0 9.13487 -14.142 -34.1187 
0 1.76673 -12.724 -34.1187 
0 0.538705 -12.015 -34.1187 
0 0.538705 -10.597 -34.1187 
0 1.76673 -9.88802 -34.1187 
0 4.22278 -12.724 -34.1187 
0 2.99475 -12.015 -34.1187 
0 2.99475 -10.597 -34.1187 
0 4.22278 -9.88802 -34.1187 
0 6.67883 -12.724 -34.1187 
0 5.4508 -12.015 -34.1187 
0 5.4508 -10.597 -34.1187 
0 6.67883 -9.88802 -34.1187 
0 9.13487 -12.724 -34.1187 
0 7.90685 -12.015 -34.1187 
0 7.90685 -10.597 -34.1187 
0 9.13487 -9.88802 -34.1187 
0 1.76673 -15.56 -30.7687 
0 0.538705 -14.851 -30.7687 
0 0.538705 -13.433 -30.7687 
0 1.76673 -12.724 -30.7687 
0 4.22278 -15.56 -30.7687 
0 2.99475 -14.851 -30.7687 
0 2.99475 -13.433 -30.7687 
0 4.22278 -12.724 -30.7687 
0 6.67883 -15.56 -30.7687 
0 5.4508 -14.851 -30.7687 
0 5.4508 -13.433 -30.7687 
0 6.67883 -12.724 -30.7687 
0 9.13487 -15.56 -30.7687 
0 7.90685 -14.851 -30.7687 
0 7.90685 -13.433 -30.7687 
0 9.13487 -12.724 -30.7687 
0 1.76673 -11.306 -30.7687 
0 0.538705 -10.597 -30.7687 
0 0.538705 -9.17902 -30.7687 
0 4.22278 -11.306 -30.7687 
0 2.99475 -10.597 -30.7687 
0 2.99475 -9.17902 -30.7687 
0 6.67883 -11.306 -30.7687 
0 5.4508 -10.597 -30.7687 
0 5.4508 -9.17902 -30.7687 
0 9.13487 -11.306 -30.7687 
0 7.90685 -10.597 -30.7687 
0 7.90685 -9.17902 -30.7687 
0 11.5909 -16.978 -34.1187 
0 10.3629 -16.269 -34.1187 
0 10.3629 -14.851 -34.1187 
0 11.5909 -14.142 -34.1187 
0 14.047 -16.978 -34.1187 
0 12.8189 -16.269 -34.1187 
0 12.8189 -14.851 -34.1187 
0 14.047 -14.142 -34.1187 
0 16.503 -16.978 -34.1187 
0 15.275 -16.269 -34.1187 
0 15.275 -14.851 -34.1187 
0 16.503 -14.142 -34.1187 
0 11.5909 -12.724 -34.1187 
0 10.3629 -12.015 -34.1187 
0 10.3629 -10.597 -34.1187 
0 11.5909 -9.88802 -34.1187 
0 14.047 -12.724 -34.1187 
0 12.8189 -12.015 -34.1187 
0 12.8189 -10.597 -34.1187 
0 14.047 -9.88802 -34.1187 
0 16.503 -12.724 -34.1187 
0 15.275 -12.015 -34.1187 
0 15.275 -10.597 -34.1187 
0 16.503 -9.88802 -34.1187 
0 11.5909 -15.56 -30.7687 
0 10.3629 -14.851 -30.7687 
0 10.3629 -13.433 -30.7687 
0 11.5909 -12.724 -30.7687 
0 14.047 -15.56 -30.7687 
0 12.8189 -14.851 -30.7687 
0 12.8189 -13.433 -30.7687 
0 14.047 -12.724 -30.7687 
0 16.503 -15.56 -30.7687 
0 15.275 -14.851 -30.7687 
0 15.275 -13.433 -30.7687 
0 16.503 -12.724 -30.7687 
0 11.5909 -11.306 -30.7687 
0 10.3629 -10.597 -30.7687 
0 10.3629 -9.17902 -30.7687 
0 14.047 -11.306 -30.7687 
0 12.8189 -10.597 -30.7687 
0 12.8189 -9.17902 -30.7687 
0 16.503 -11.306 -30.7687 
0 15.275 -10.597 -30.7687 
0 15.275 -9.17902 -30.7687 
0 1.76673 -8.47002 -34.1187 
0 0.538705 -7.76102 -34.1187 
0 0.538705 -6.34302 -34.1187 
0 1.76673 -5.63402 -34.1187 
0 4.22278 -8.47002 -34.1187 
0 2.99475 -7.76102 -34.1187 
0 2.99475 -6.34302 -34.1187 
0 4.22278 -5.63402 -34.1187 
0 6.67883 -8.47002 -34.1187 
0 5.4508 -7.76102 -34.1187 
0 5.4508 -6.34302 -34.1187 
0 6.67883 -5.63402 -34.1187 
0 9.13487 -8.47002 -34.1187 
0 7.90685 -7.76102 -34.1187 
0 7.90685 -6.34302 -34.1187 
0 9.13487 -5.63402 -34.1187 
0 1.76673 -4.21602 -34.1187 
0 0.538705 -3.50702 -34.1187 
0 0.538705 -2.08902 -34.1187 
0 1.76673 -1.38002 -34.1187 
0 4.22278 -4.21602 -34.1187 
0 2.99475 -3.50702 -34.1187 
0 2.99475 -2.08902 -34.1187 
0 4.22278 -1.38002 -34.1187 
0 6.67883 -4.21602 -34.1187 
0 5.4508 -3.50702 -34.1187 
0 5.4508 -2.08902 -34.1187 
0 6.67883 -1.38002 -34.1187 
0 9.13487 -4.21602 -34.1187 
0 7.90685 -3.50702 -34.1187 
0 7.90685 -2.08902 -34.1187 
0 9.13487 -1.38002 -34.1187 
0 1.76673 -8.47002 -30.7687 
0 4.22278 -8.47002 -30.7687 
0 6.67883 -8.47002 -30.7687 
0 9.13487 -8.47002 -30.7687 
0 1.76673 -7.05202 -30.7687 
0 0.538705 -6.34302 -30.7687 
0 0.538705 -4.92502 -30.7687 
0 1.76673 -4.21602 -30.7687 
0 4.22278 -7.05202 -30.7687 
0 2.99475 -6.34302 -30.7687 
0 2.99475 -4.92502 -30.7687 
0 4.22278 -4.21602 -30.7687 
0 6.67883 -7.05202 -30.7687 
0 5.4508 -6.34302 -30.7687 
0 5.4508 -4.92502 -30.7687 
0 6.67883 -4.21602 -30.7687 
0 9.13487 -7.05202 -30.7687 
0 7.90685 -6.34302 -30.7687 
0 7.90685 -4.92502 -30.7687 
0 9.13487 -4.21602 -30.7687 
0 1.76673 -2.79802 -30.7687 
0 0.538705 -2.08902 -30.7687 
0 0.538705 -0.671021 -30.7687 
0 4.22278 -2.79802 -30.7687 
0 2.99475 -2.08902 -30.7687 
0 2.99475 -0.671021 -30.7687 
0 6.67883 -2.79802 -30.7687 
0 5.4508 -2.08902 -30.7687 
0 5.4508 -0.671021 -30.7687 
0 9.13487 -2.79802 -30.7687 
0 7.90685 -2.08902 -30.7687 
0 7.90685 -0.671021 -30.7687 
0 11.5909 -8.47002 -34.1187 
0 10.3629 -7.76102 -34.1187 
0 10.3629 -6.34302 -34.1187 
0 11.5909 -5.63402 -34.1187 
0 14.047 -8.47002 -34.1187 
0 12.8189 -7.76102 -34.1187 
0 12.8189 -6.34302 -34.1187 
0 14.047 -5.63402 -34.1187 
0 16.503 -8.47002 -34.1187 
0 15.275 -7.76102 -34.1187 
0 15.275 -6.34302 -34.1187 
0 16.503 -5.63402 -34.1187 
0 11.5909 -4.21602 -34.1187 
0 10.3629 -3.50702 -34.1187 
0 10.3629 -2.08902 -34.1187 
0 11.5909 -1.38002 -34.1187 
0 14.047 -4.21602 -34.1187 
0 12.8189 -3.50702 -34.1187 
0 12.8189 -2.08902 -34.1187 
0 14.047 -1.38002 -34.1187 
0 16.503 -4.21602 -34.1187 
0 15.275 -3.50702 -34.1187 
0 15.275 -2.08902 -34.1187 
0 16.503 -1.38002 -34.1187 
0 11.5909 -8.47002 -30.7687 
0 14.047 -8.47002 -30.7687 
0 16.503 -8.47002 -30.7687 
0 11.5909 -7.05202 -30.7687 
0 10.3629 -6.34302 -30.7687 
0 10.3629 -4.92502 -30.7687 
0 11.5909 -4.21602 -30.7687 
0 14.047 -7.05202 -30.7687 
0 12.8189 -6.34302 -30.7687 
0 12.8189 -4.92502 -30.7687 
0 14.047 -4.21602 -30.7687 
0 16.503 -7.05202 -30.7687 
0 15.275 -6.34302 -30.7687 
0 15.275 -4.92502 -30.7687 
0 16.503 -4.21602 -30.7687 
0 11.5909 -2.79802 -30.7687 
0 10.3629 -2.08902 -30.7687 
0 10.3629 -0.671021 -30.7687 
0 14.047 -2.79802 -30.7687 
0 12.8189 -2.08902 -30.7687 
0 12.8189 -0.671021 -30.7687 
0 16.503 -2.79802 -30.7687 
0 15.275 -2.08902 -30.7687 
0 15.275 -0.671021 -30.7687 
0 1.76673 0.037981 -34.1187 
0 0.538705 0.74698 -34.1187 
0 0.538705 2.16498 -34.1187 
0 1.76673 2.87398 -34.1187 
0 4.22278 0.037981 -34.1187 
0 2.99475 0.74698 -34.1187 
0 2.99475 2.16498 -34.1187 
0 4.22278 2.87398 -34.1187 
0 6.67883 0.037981 -34.1187 
0 5.4508 0.74698 -34.1187 
0 5.4508 2.16498 -34.1187 
0 6.67883 2.87398 -34.1187 
0 9.13487 0.037981 -34.1187 
0 7.90685 0.74698 -34.1187 
0 7.90685 2.16498 -34.1187 
0 9.13487 2.87398 -34.1187 
0 1.76673 4.29198 -34.1187 
0 0.538705 5.00098 -34.1187 
0 0.538705 6.41898 -34.1187 
0 1.76673 7.12798 -34.1187 
0 4.22278 4.29198 -34.1187 
0 2.99475 5.00098 -34.1187 
0 2.99475 6.41898 -34.1187 
0 4.22278 7.12798 -34.1187 
0 6.67883 4.29198 -34.1187 
0 5.4508 5.00098 -34.1187 
0 5.4508 6.41898 -34.1187 
0 6.67883 7.12798 -34.1187 
0 9.13487 4.29198 -34.1187 
0 7.90685 5.00098 -34.1187 
0 7.90685 6.41898 -34.1187 
0 9.13487 7.12798 -34.1187 
0 1.76673 8.54598 -34.1187 
0 4.22278 8.54598 -34.1187 
0 6.67883 8.54598 -34.1187 
0 9.13487 8.54598 -34.1187 
0 1.76673 0.037981 -30.7687 
0 4.22278 0.037981 -30.7687 
0 6.67883 0.037981 -30.7687 
0 9.13487 0.037981 -30.7687 
0 1.76673 1.45598 -30.7687 
0 0.538705 2.16498 -30.7687 
0 0.538705 3.58298 -30.7687 
0 1.76673 4.29198 -30.7687 
0 4.22278 1.45598 -30.7687 
0 2.99475 2.16498 -30.7687 
0 2.99475 3.58298 -30.7687 
0 4.22278 4.29198 -30.7687 
0 6.67883 1.45598 -30.7687 
0 5.4508 2.16498 -30.7687 
0 5.4508 3.58298 -30.7687 
0 6.67883 4.29198 -30.7687 
0 9.13487 1.45598 -30.7687 
0 7.90685 2.16498 -30.7687 
0 7.90685 3.58298 -30.7687 
0 9.13487 4.29198 -30.7687 
0 1.76673 5.70998 -30.7687 
0 0.538705 6.41898 -30.7687 
0 0.538705 7.83698 -30.7687 
0 1.76673 8.54598 -30.7687 
0 4.22278 5.70998 -30.7687 
0 2.99475 6.41898 -30.7687 
0 2.99475 7.83698 -30.7687 
0 4.22278 8.54598 -30.7687 
0 6.67883 5.70998 -30.7687 
0 5.4508 6.41898 -30.7687 
0 5.4508 7.83698 -30.7687 
0 6.67883 8.54598 -30.7687 
0 9.13487 5.70998 -30.7687 
0 7.90685 6.41898 -30.7687 
0 7.90685 7.83698 -30.7687 
0 9.13487 8.54598 -30.7687 
0 11.5909 0.037981 -34.1187 
0 10.3629 0.74698 -34.1187 
0 10.3629 2.16498 -34.1187 
0 11.5909 2.87398 -34.1187 
0 14.047 0.037981 -34.1187 
0 12.8189 0.74698 -34.1187 
0 12.8189 2.16498 -34.1187 
0 14.047 2.87398 -34.1187 
0 16.503 0.037981 -34.1187 
0 15.275 0.74698 -34.1187 
0 15.275 2.16498 -34.1187 
0 16.503 2.87398 -34.1187 
0 11.5909 4.29198 -34.1187 
0 10.3629 5.00098 -34.1187 
0 10.3629 6.41898 -34.1187 
0 11.5909 7.12798 -34.1187 
0 14.047 4.29198 -34.1187 
0 12.8189 5.00098 -34.1187 
0 12.8189 6.41898 -34.1187 
0 14.047 7.12798 -34.1187 
0 16.503 4.29198 -34.1187 
0 15.275 5.00098 -34.1187 
0 15.275 6.41898 -34.1187 
0 16.503 7.12798 -34.1187 
0 11.5909 8.54598 -34.1187 
0 14.047 8.54598 -34.1187 
0 16.503 8.54598 -34.1187 
0 11.5909 0.037981 -30.7687 
0 14.047 0.037981 -30.7687 
0 16.503 0.037981 -30.7687 
0 11.5909 1.45598 -30.7687 
0 10.3629 2.16498 -30.7687 
0 10.3629 3.58298 -30.7687 
0 11.5909 4.29198 -30.7687 
0 14.047 1.45598 -30.7687 
0 12.8189 2.16498 -30.7687 
0 12.8189 3.58298 -30.7687 
0 14.047 4.29198 -30.7687 
0 16.503 1.45598 -30.7687 
0 15.275 2.16498 -30.7687 
0 15.275 3.58298 -30.7687 
0 16.503 4.29198 -30.7687 
0 11.5909 5.70998 -30.7687 
0 10.3629 6.41898 -30.7687 
0 10.3629 7.83698 -30.7687 
0 11.5909 8.54598 -30.7687 
0 14.047 5.70998 -30.7687 
0 12.8189 6.41898 -30.7687 
0 12.8189 7.83698 -30.7687 
0 14.047 8.54598 -30.7687 
0 16.503 5.70998 -30.7687 
0 15.275 6.41898 -30.7687 
0 15.275 7.83698 -30.7687 
0 16.503 8.54598 -30.7687 
0 0.538705 9.25498 -34.1187 
0 0.538705 10.673 -34.1187 
0 1.76673 11.382 -34.1187 
0 2.99475 9.25498 -34.1187 
0 2.99475 10.673 -34.1187 
0 4.22278 11.382 -34.1187 
0 5.4508 9.25498 -34.1187 
0 5.4508 10.673 -34.1187 
0 6.67883 11.382 -34.1187 
0 7.90685 9.25498 -34.1187 
0 7.90685 10.673 -34.1187 
0 9.13487 11.382 -34.1187 
0 1.76673 12.8 -34.1187 
0 0.538705 13.509 -34.1187 
0 0.538705 14.927 -34.1187 
0 1.76673 15.636 -34.1187 
0 4.22278 12.8 -34.1187 
0 2.99475 13.509 -34.1187 
0 2.99475 14.927 -34.1187 
0 4.22278 15.636 -34.1187 
0 6.67883 12.8 -34.1187 
0 5.4508 13.509 -34.1187 
0 5.4508 14.927 -34.1187 
0 6.67883 15.636 -34.1187 
0 9.13487 12.8 -34.1187 
0 7.90685 13.509 -34.1187 
0 7.90685 14.927 -34.1187 
0 9.13487 15.636 -34.1187 
0 1.76673 9.96398 -30.7687 
0 0.538705 10.673 -30.7687 
0 0.538705 12.091 -30.7687 
0 1.76673 12.8 -30.7687 
0 4.22278 9.96398 -30.7687 
0 2.99475 10.673 -30.7687 
0 2.99475 12.091 -30.7687 
0 4.22278 12.8 -30.7687 
0 6.67883 9.96398 -30.7687 
0 5.4508 10.673 -30.7687 
0 5.4508 12.091 -30.7687 
0 6.67883 12.8 -30.7687 
0 9.13487 9.96398 -30.7687 
0 7.90685 10.673 -30.7687 
0 7.90685 12.091 -30.7687 
0 9.13487 12.8 -30.7687 
0 1.76673 14.218 -30.7687 
0 0.538705 14.927 -30.7687 
0 0.538705 16.345 -30.7687 
0 1.76673 17.054 -30.7687 
0 4.22278 14.218 -30.7687 
0 2.99475 14.927 -30.7687 
0 2.99475 16.345 -30.7687 
0 4.22278 17.054 -30.7687 
0 6.67883 14.218 -30.7687 
0 5.4508 14.927 -30.7687 
0 5.4508 16.345 -30.7687 
0 6.67883 17.054 -30.7687 
0 9.13487 14.218 -30.7687 
0 7.90685 14.927 -30.7687 
0 7.90685 16.345 -30.7687 
0 9.13487 17.054 -30.7687 
0 10.3629 9.25498 -34.1187 
0 10.3629 10.673 -34.1187 
0 11.5909 11.382 -34.1187 
0 12.8189 9.25498 -34.1187 
0 12.8189 10.673 -34.1187 
0 14.047 11.382 -34.1187 
0 15.275 9.25498 -34.1187 
0 15.275 10.673 -34.1187 
0 16.503 11.382 -34.1187 
0 11.5909 12.8 -34.1187 
0 10.3629 13.509 -34.1187 
0 10.3629 14.927 -34.1187 
0 11.5909 15.636 -34.1187 
0 14.047 12.8 -34.1187 
0 12.8189 13.509 -34.1187 
0 12.8189 14.927 -34.1187 
0 14.047 15.636 -34.1187 
0 16.503 12.8 -34.1187 
0 15.275 13.509 -34.1187 
0 15.275 14.927 -34.1187 
0 16.503 15.636 -34.1187 
0 11.5909 9.96398 -30.7687 
0 10.3629 10.673 -30.7687 
0 10.3629 12.091 -30.7687 
0 11.5909 12.8 -30.7687 
0 14.047 9.96398 -30.7687 
0 12.8189 10.673 -30.7687 
0 12.8189 12.091 -30.7687 
0 14.047 12.8 -30.7687 
0 16.503 9.96398 -30.7687 
0 15.275 10.673 -30.7687 
0 15.275 12.091 -30.7687 
0 16.503 12.8 -30.7687 
0 11.5909 14.218 -30.7687 
0 10.3629 14.927 -30.7687 
0 10.3629 16.345 -30.7687 
0 11.5909 17.054 -30.7687 
0 14.047 14.218 -30.7687 
0 12.8189 14.927 -30.7687 
0 12.8189 16.345 -30.7687 
0 14.047 17.054 -30.7687 
0 16.503 14.218 -30.7687 
0 15.275 14.927 -30.7687 
0 15.275 16.345 -30.7687 
0 16.503 17.054 -30.7687 
ITEM: TIMESTEP
2200000
ITEM: NUMBER OF ATOMS
896
ITEM: BOX BOUNDS pp pp ff
-1.7153631884999999e+01 1.8003017117999999e+01
-1.7855467918999999e+01 1.7553981017000002e+01
-3.4618715923000003e+01 3.4618715923000003e+01
ITEM: ATOMS q x y z 
-0.000199097 -15.4256 -16.978 -34.1187 
-0.000155725 -16.6536 -16.269 -34.1187 
7.80541e-05 -16.6536 -14.851 -34.1187 
0.000156681 -15.4256 -14.142 -34.1187 
-0.000180543 -12.9696 -16.978 -34.1187 
-3.44177e-06 -14.1976 -16.269 -34.1187 
0.000125119 -14.1976 -14.851 -34.1187 
0.000111557 -12.9696 -14.142 -34.1187 
-0.000195864 -10.5135 -16.978 -34.1187 
-4.98576e-05 -11.7415 -16.269 -34.1187 
4.8063e-05 -11.7415 -14.851 -34.1187 
3.37112e-05 -10.5135 -14.142 -34.1187 
-8.61221e-05 -9.28549 -16.269 -34.1187 
-1.50826e-05 -9.28549 -14.851 -34.1187 
0.000135265 -15.4256 -12.724 -34.1187 
5.26248e-05 -16.6536 -12.015 -34.1187 
-2.99202e-06 -16.6536 -10.597 -34.1187 
6.31677e-05 -15.4256 -9.88802 -34.1187 
0.000133627 -12.9696 -12.724 -34.1187 
0.000129672 -14.1976 -12.015 -34.1187 
0.000110085 -14.1976 -10.597 -34.1187 
0.000112776 -12.9696 -9.88802 -34.1187 
6.08605e-05 -10.5135 -12.724 -34.1187 
9.89516e-05 -11.7415 -12.015 -34.1187 
0.000102838 -11.7415 -10.597 -34.1187 
8.78904e-05 -10.5135 -9.88802 -34.1187 
1.73729e-05 -9.28549 -12.015 -34.1187 
4.63508e-05 -9.28549 -10.597 -34.1187 
-0.00812966 -15.4256 -15.56 -30.7687 
-0.0114228 -16.6536 -14.851 -30.7687 
-0.00835932 -16.6536 -13.433 -30.7687 
-0.00459262 -15.4256 -12.724 -30.7687 
-0.00378956 -12.9696 -15.56 -30.7687 
-0.00593557 -14.1976 -14.851 -30.7687 
-0.00598335 -14.1976 -13.433 -30.7687 
-0.00518227 -12.9696 -12.724 -30.7687 
-0.00230736 -10.5135 -15.56 -30.7687 
-0.00358945 -11.7415 -14.851 -30.7687 
-0.00386198 -11.7415 -13.433 -30.7687 
-0.00135388 -10.5135 -12.724 -30.7687 
-0.00119707 -9.28549 -14.851 -30.7687 
-0.00161977 -9.28549 -13.433 -30.7687 
-0.00322302 -15.4256 -11.306 -30.7687 
-0.00304101 -16.6536 -10.597 -30.7687 
0.00149352 -16.6536 -9.17902 -30.7687 
-0.00335004 -12.9696 -11.306 -30.7687 
-0.00352309 -14.1976 -10.597 -30.7687 
-0.0060996 -14.1976 -9.17902 -30.7687 
-0.00506308 -10.5135 -11.306 -30.7687 
-0.0036405 -11.7415 -10.597 -30.7687 
-0.00551111 -11.7415 -9.17902 -30.7687 
-0.00342849 -9.28549 -10.597 -30.7687 
-0.00342863 -9.28549 -9.17902 -30.7687 
-0.000284856 -8.05746 -16.978 -34.1187 
5.04657e-06 -8.05746 -14.142 -34.1187 
-0.000499419 -5.60142 -16.978 -34.1187 
-0.000186781 -6.82944 -16.269 -34.1187 
3.20063e-05 -6.82944 -14.851 -34.1187 
9.93587e-05 -5.60142 -14.142 -34.1187 
-0.000396817 -3.14537 -16.978 -34.1187 
-0.000320847 -4.37339 -16.269 -34.1187 
5.63871e-05 -4.37339 -14.851 -34.1187 
7.45352e-05 -3.14537 -14.142 -34.1187 
-0.00019923 -0.68932 -16.978 -34.1187 
-0.000128694 -1.91734 -16.269 -34.1187 
5.24689e-05 -1.91734 -14.851 -34.1187 
9.50774e-05 -0.68932 -14.142 -34.1187 
-3.46997e-06 -8.05746 -12.724 -34.1187 
1.13301e-05 -8.05746 -9.88802 -34.1187 
9.62871e-06 -5.60142 -12.724 -34.1187 
-3.75818e-05 -6.82944 -12.015 -34.1187 
-6.24979e-05 -6.82944 -10.597 -34.1187 
-8.39005e-05 -5.60142 -9.88802 -34.1187 
-1.9152e-05 -3.14537 -12.724 -34.1187 
-6.31567e-05 -4.37339 -12.015 -34.1187 
-0.000119614 -4.37339 -10.597 -34.1187 
-0.00010858 -3.14537 -9.88802 -34.1187 
5.24859e-05 -0.68932 -12.724 -34.1187 
-5.88656e-05 -1.91734 -12.015 -34.1187 
-0.000100863 -1.91734 -10.597 -34.1187 
8.52639e-05 -0.68932 -9.88802 -34.1187 
-0.00363329 -8.05746 -15.56 -30.7687 
-0.0010979 -8.05746 -12.724 -30.7687 
-0.0291233 -5.60142 -15.56 -30.7687 
-0.00289189 -6.82944 -14.851 -30.7687 
-0.00234669 -6.82944 -13.433 -30.7687 
-0.00108848 -5.60142 -12.724 -30.7687 
-0.0166865 -3.14537 -15.56 -30.7687 
-0.00984727 -4.37339 -14.851 -30.7687 
-0.00031657 -4.37339 -13.433 -30.7687 
0.000977973 -3.14537 -12.724 -30.7687 
-0.0105009 -0.68932 -15.56 -30.7687 
-0.00499278 -1.91734 -14.851 -30.7687 
-0.00191461 -1.91734 -13.433 -30.7687 
-0.00318957 -0.68932 -12.724 -30.7687 
0.00200843 -8.05746 -11.306 -30.7687 
5.46198e-05 -5.60142 -11.306 -30.7687 
0.00187751 -6.82944 -10.597 -30.7687 
-0.000270708 -6.82944 -9.17902 -30.7687 
0.00279904 -3.14537 -11.306 -30.7687 
0.00183521 -4.37339 -10.597 -30.7687 
0.00184965 -4.37339 -9.17902 -30.7687 
0.00210116 -0.68932 -11.306 -30.7687 