ITEM: TIMESTEP
2000000
ITEM: NUMBER OF ATOMS
896
ITEM: BOX BOUNDS pp pp ff
-1.7153631884999999e+01 1.8003017117999999e+01
-1.7855467918999999e+01 1.7553981017000002e+01
-3.4618715923000003e+01 3.4618715923000003e+01
ITEM: ATOMS q 
0 
0 
0 
0 
0 
0 
0 
0 
0 
0 
0 
0 
0 
0 
0 
0 
0 
0 
0 
0 
0 
0 
0 
0 
0 
0 
0 
0 
0 
0 
0 
0 
0 
0 
0 
0 
0 
0 
0 
0 
0 
0 
0 
0 
0 
0 
0 
0 
0 
0 
0 
0 
0 
0 
0 
0 
0 
0 
0 
0 
0 
0 
0 
0 
0 
0 
0 
0 
0 
0 
0 
0 
0 
0 
0 
0 
0 
0 
0 
0 
0 
0 
0 
0 
0 
0 
0 
0 
0 
0 
0 
0 
0 
0 
0 
0 
0 
0 
0 
0 
0 
0 
0 
0 
0 
0 
0 
0 
0 
0 
0 
0 
0 
0 
0 
0 
0 
0 
0 
0 
0 
0 
0 
0 
0 
0 
0 
0 
0 
0 
0 
0 
0 
0 
0 
0 
0 
0 
0 
0 
0 
0 
0 
0 
0 
0 
0 
0 
0 
0 
0 
0 
0 
0 
0 
0 
0 
0 
0 
0 
0 
0 
0 
0 
0 
0 
0 
0 
0 
0 
0 
0 
0 
0 
0 
0 
0 
0 
0 
0 
0 
0 
0 
0 
0 
0 
0 
0 
0 
0 
0 
0 
0 
0 
0 
0 
0 
0 
0 
0 
0 
0 
0 
0 
0 
0 
0 
0 
0 
0 
0 
0 
0 
0 
0 
0 
0 
0 
0 
0 
0 
0 
0 
0 
0 
0 
0 
0 
0 
0 
0 
0 
0 
0 
0 
0 
0 
0 
0 
0 
0 
0 
0 
0 
0 
0 
0 
0 
0 
0 
0 
0 
0 
0 
0 
0 
0 
0 
0 
0 
0 
0 
0 
0 
0 
0 
0 
0 
0 
0 
0 
0 
0 
0 
0 
0 
0 
0 
0 
0 
0 
0 
0 
0 
0 
0 
0 
0 
0 
0 
0 
0 
0 
0 
0 
0 
0 
0 
0 
0 
0 
0 
0 
0 
0 
0 
0 
0 
0 
0 
0 
0 
0 
0 
0 
0 
0 
0 
0 
0 
0 
0 
0 
0 
0 
0 
0 
0 
0 
0 
0 
0 
0 
0 
0 
0 
0 
0 
0 
0 
0 
0 
0 
0 
0 
0 
0 
0 
0 
0 
0 
0 
0 
0 
0 
0 
0 
0 
0 
0 
0 
0 
0 
0 
0 
0 
0 
0 
0 
0 
0 
0 
0 
0 
0 
0 
0 
0 
0 
0 
0 
0 
0 
0 
0 
0 
0 
0 
0 
0 
0 
0 
0 
0 
0 
0 
0 
0 
0 
0 
0 
0 
0 
0 
0 
0 
0 
0 
0 
0 
0 
0 
0 
0 
0 
0 
0 
0 
0 
0 
0 
0 
0 
0 
0 
0 
0 
0 
0 
0 
0 
0 
0 
0 
0 
0 
0 
0 
0 
0 
0 
0 
0 
0 
0 
0 
0 
0 
0 
0 
0 
0 
0 
0 
0 
0 
0 
0 
0 
0 
0 
0 
0 
0 
0 
0 
0 
0 
0 
0 
0 
0 
0 
0 
0 
0 
0 
0 
0 
0 
0 
0 
0 
0 
0 
0 
0 
0 
0 
0 
0 
0 
0 
0 
0 
0 
0 
0 
0 
0 
0 
0 
0 
0 
0 
0 
0 
0 
0 
0 
0 
0 
0 
0 
0 
0 
0 
0 
0 
0 
0 
0 
0 
0 
0 
0 
0 
0 
0 
0 
0 
0 
0 
0 
0 
0 
0 
0 
0 
0 
0 
0 
0 
0 
0 
0 
0 
0 
0 
0 
0 
0 
0 
0 
0 
0 
0 
0 
0 
0 
0 
0 
0 
0 
0 
0 
0 
0 
0 
0 
0 
0 
0 
0 
0 
0 
0 
0 
0 
0 
0 
0 
0 
0 
0 
0 
0 
0 
0 
0 
0 
0 
0 
0 
0 
0 
0 
0 
0 
0 
0 
0 
0 
0 
0 
0 
0 
0 
0 
0 
0 
0 
0 
0 
0 
0 
0 
0 
0 
0 
0 
0 
0 
0 
0 
0 
0 
0 
0 
0 
0 
0 
0 
0 
0 
0 
0 
0 
0 
0 
0 
0 
0 
0 
0 
0 
0 
0 
0 
0 
0 
0 
0 
0 
0 
0 
0 
0 
0 
0 
0 
0 
0 
0 
0 
0 
0 
0 
0 
0 
0 
0 
0 
0 
0 
0 
0 
0 
0 
0 
0 
0 
0 
0 
0 
0 
0 
0 
0 
0 
0 
0 
0 
0 
0 
0 
0 
0 
0 
0 
0 
0 
0 
0 
0 
0 
0 
0 
0 
0 
0 
0 
0 
0 
0 
0 
0 
0 
0 
0 
0 
0 
0 
0 
0 
0 
0 
0 
0 
0 
0 
0 
0 
0 
0 
0 
0 
0 
0 
0 
0 
0 
0 
0 
0 
0 
0 
0 
0 
0 
0 
0 
0 
0 
0 
0 
0 
0 
0 
0 
0 
0 
0 
0 
0 
0 
0 
0 
0 
0 
0 
0 
0 
0 
0 
0 
0 
0 
0 
0 
0 
0 
0 
0 
0 
0 
0 
0 
0 
0 
0 
0 
0 
0 
0 
0 
0 
0 
0 
0 
0 
0 
0 
0 
0 
0 
0 
0 
0 
0 
0 
0 
0 
0 
0 
0 
0 
0 
0 
0 
0 
0 
0 
0 
0 
0 
0 
0 
0 
0 
0 
0 
0 
0 
0 
0 
0 
0 
0 
0 
0 
0 
0 
0 
0 
0 
0 
0 
0 
0 
0 
0 
0 
0 
0 
0 
0 
0 
0 
0 
0 
0 
0 
0 
0 
0 
0 
0 
0 
0 
0 
0 
0 
0 
0 
0 
0 
0 
0 
0 
0 
0 
0 
0 
0 
0 
0 
0 
0 
0 
0 
0 
0 
0 
0 
0 
ITEM: TIMESTEP
2200000
ITEM: NUMBER OF ATOMS
896
ITEM: BOX BOUNDS pp pp ff
-1.7153631884999999e+01 1.8003017117999999e+01
-1.7855467918999999e+01 1.7553981017000002e+01
-3.4618715923000003e+01 3.4618715923000003e+01
ITEM: ATOMS q 
0.00317519 
-0.00308706 
0.00034382 
0.00826336 
0.00127029 
0.00429856 
0.00909724 
0.00514297 
0.0096127 
0.00591356 
0.00707894 
0.00812021 
0.00437351 
0.0069573 
0.0120454 
0.00744807 
0.00535189 
0.00491028 
0.00405984 
0.00264678 
0.00876823 
0.00408709 
0.00376326 
0.00567159 
-0.000297794 
-0.000200724 
-0.000286217 
-0.000308627 
-0.000420184 
-0.000319931 
-0.000318332 
-0.000321559 
-0.000439141 
-0.000359522 
-0.000352616 
-0.000347745 
-0.000308519 
-0.000351293 
-0.000210901 
-0.000278545 
-0.000266856 
-0.000163012 
-0.00030256 
-0.000266318 
-0.000206519 
0.000606546 
0.00653574 
0.00523195 
0.00440217 
0.00402661 
0.00376099 
0.00657475 
0.00572046 
-0.00532699 
0.0044514 
0.00463718 
0.00178168 
0.00546524 
0.000614859 
0.00442966 
0.00537922 
0.00344505 
0.00740725 
0.00488616 
0.000281968 
-0.00140148 
-0.00546885 
-0.00838624 
-0.00179745 
0.00494323 
0.00200646 
0.00536518 
0.0109137 
0.00721566 
0.00907065 
0.0109107 
0.00911887 
-0.000372749 
-0.000316363 
-0.000314471 
-0.000196668 
-0.000312199 
-0.000256696 
-0.000169095 
-0.00013928 
-0.000250193 
-0.000212858 
-0.0002173 
-0.000287952 
-0.00039369 
-0.000244879 
-0.000318586 
-0.000388187 
-0.000132649 
-0.000235733 
-0.0002212 
-0.000103403 
-4.06343e-05 
-0.000119061 
-0.000360944 
-0.000263979 
-0.000304889 
-0.000437215 
-0.000457374 
-0.000437099 
-0.00153612 
0.0010751 
-0.0024786 
-0.00399457 
0.00160381 
-0.00159242 
-0.0036811 
-0.00401485 
0.00405356 
0.00137488 
-0.000301992 
0.00128703 
-0.00338814 
-0.00231572 
0.000436066 
0.00159801 
-0.0102392 
-0.00545903 
-0.000505643 
-0.00151547 
-0.00136942 
-0.00718889 
-0.00535415 
-7.78361e-05 
0.00494572 
0.00253216 
0.00393073 
-9.85611e-05 
-0.00012098 
-0.000227999 
2.14597e-06 
-3.18417e-05 
1.00339e-05 
9.42898e-05 
-7.03722e-06 
7.21308e-05 
0.000137521 
0.000175457 
-0.000167527 
-2.58156e-05 
8.37117e-05 
3.65855e-05 
2.52643e-05 
-4.98317e-05 
-0.000203537 
-0.000237206 
0.000104068 
4.8894e-06 
-0.000136986 
-0.000178096 
5.48041e-05 
5.30231e-05 
-9.16966e-05 
-0.000204375 
0.00165088 
0.00664842 
0.00687113 
-0.00022641 
-0.000377601 
-0.000403723 
-8.36897e-05 
-0.000410807 
-0.000481736 
0.00799262 
-0.00248616 
0.00638677 
0.00451369 
-0.000224011 
0.00605829 
0.00239429 
-0.000380294 
0.00969717 
-0.00044474 
-0.000363237 
0.00531377 
-0.000455843 
-0.000184513 
-0.000270703 
-0.000406854 
0.00506994 
0.00395183 
0.00419703 
-0.000261518 
-8.30523e-05 
0.0104261 
-0.000332339 
-0.000401157 
0.00266951 
-0.000213431 
-0.000245057 
0.00375212 
-0.000206314 
0.00901361 
0.0127508 
0.00548391 
-0.000230404 
0.00708682 
0.00326298 
0.00411525 
-0.000187329 
-0.000257751 
-0.000170426 
0.00537706 
-0.00101826 
-0.000238419 
0.00262307 
0.000560218 
-0.0001569 
0.00654723 
-8.41869e-05 
0.00148059 
-0.000194045 
-0.000344985 
0.000407992 
-0.00334956 
0.000166052 
-0.00016266 
-0.000315469 
-0.000162991 
0.000748802 
0.00373913 
0.0074725 
-0.000166609 
-4.67441e-05 
0.00875666 
-0.000413448 
0.00830416 
0.0098777 
0.00867365 
0.00594295 
0.00735651 
0.00430247 
0.00310774 
0.00423642 
0.00684732 
0.00704566 
0.0140987 
0.0137114 
0.00718661 
0.00638762 
0.00632413 
0.00793671 
0.0118253 
0.013151 
0.0147188 
0.0181735 
0.0205689 
0.00964068 
0.00943752 
0.0113231 
-0.00033994 
-0.000397978 
-0.000452868 
-0.000444017 
-0.000295583 
-0.00036478 
-0.000415956 
-0.000492306 
-0.000341426 
-0.000346938 
-0.000488678 
-0.000571656 
-0.000475683 
-0.000518353 
-0.000500378 
-0.00046704 
-0.000589519 
-0.000523046 
-0.000519529 
-0.000544175 
-0.000675327 
-0.000717033 
-0.00065377 
-0.000636581 
0.00663604 
0.0101944 
0.00878345 
0.00623026 
0.0094689 
0.0040567 
0.00311656 
0.000283951 
-0.00366484 
0.00425189 
0.00185581 
0.00264655 
0.00606196 
0.0129499 
0.0164944 
0.00720592 
-0.00445384 
-0.00836959 
-0.0158293 
-0.00143464 
-0.0108254 
-0.0118524 
-0.00224842 
0.00328277 
0.000912954 
-0.00329639 
0.000237354 
0.00397925 
0.0121612 
0.00891529 
0.0089235 
0.00666032 
-0.000361315 
-0.000414076 
-0.000480069 
-0.000305846 
-0.000222752 
-0.000302826 
-0.000160801 
5.45075e-05 
-0.000144058 
-9.9369e-05 
5.01606e-05 
0.000128051 
-0.000276567 
-0.000133444 
-1.68325e-05 
-0.000101538 
-0.000281074 
-0.00059818 
-0.000599105 
-0.000498924 
9.18208e-05 
-4.42295e-05 
-0.000269628 
-0.00032257 
3.98696e-05 
9.409e-06 
-0.000208186 
-0.000365386 
-0.000133488 
-0.000126881 
-0.000307579 
-0.00040326 
0.0121789 
0.0086194 
-0.000472303 
0.00342062 
-0.000458357 
-0.000471538 
-0.000325605 
-0.000428197 
-0.000440295 
-0.000503883 
-0.000478658 
-0.00050557 
0.00971097 
-0.000480671 
0.00816061 
-0.00048216 
-0.000309852 
-0.000268466 
0.0125861 
-0.000484095 
-0.000467673 
-0.000273359 
-0.000417101 
-0.000411026 
-0.00034261 
-0.0004602 
0.0112399 
0.0117696 
-0.000425837 
-0.000443558 
0.0122954 
-0.000272617 
0.00861683 
-0.000511723 
0.0122447 
0.0128319 
0.00840298 
0.00757446 
0.00718262 
0.00501058 
0.00689503 
0.00479004 
0.00549111 
0.0112203 
0.0151191 
0.0069224 
-0.000351966 
0.00890418 
-0.000215573 
-0.000514238 
0.00438903 
0.00666876 
-0.000476475 
-0.000516182 
-0.000439802 
0.00482447 
0.00785933 
-0.000557612 
0.00730411 
-0.000498401 
-0.000425832 
0.00696729 
0.0062375 
-0.000296628 
-0.000532527 
-0.000407527 
0.012248 
0.0124784 
-0.00044274 
0.00711673 
-0.000491887 
-0.000192424 
0.00825592 
-0.000429901 
-0.000211885 
-0.000184286 
-0.000340429 
0.0101555 
0.00621825 
0.00590457 
-0.000463488 
0.00583907 
-0.00022904 
0.00443313 
-0.000300304 
0.00304191 
0.0088582 
0.00587603 
-0.000458746 
0.0151037 
-0.000346864 
-0.000455279 
0.0125427 
-0.000311482 
-0.000387005 
-0.000402527 
0.0129614 
-0.000437077 
-0.000379668 
-0.000277668 
0.00415272 
0.00637095 
0.0131917 
0.0101065 
-0.000348113 
0.0203476 
0.0104688 
0.00719593 
0.00706839 
0.0168514 
0.0117676 
0.00706108 
0.00272332 
0.00758785 
0.00525663 
0.00345626 
0.00157215 
0.00211029 
0.00112921 
0.00628152 
0.00750479 
0.00847315 
0.00489249 
-0.00309291 
-0.000922301 
0.00130669 
0.0031997 
0.00561536 
0.00210697 
0.00702458 
0.00661582 
0.007107 
0.00424478 
-0.000526622 
-0.000384851 
-0.000371293 
-0.00032486 
-0.00038512 
-0.00036218 
-0.000267477 
-0.000189347 
-0.000270116 
-0.000237955 
-0.000212185 
-0.000238549 
-0.000222414 
-0.000257647 
-0.000300409 
-0.000399949 
-0.000379705 
-0.000225479 
-0.000251599 
-0.000301875 
-0.000242814 
-0.000260532 
-0.000288859 
-0.000194805 
-0.00011282 
0.0106699 
0.00413833 
0.0127611 
0.00630288 
0.00460856 
0.00419395 
0.0117589 
0.00709853 
0.00375699 
0.00244674 
-0.00184836 
0.00055186 
-0.00198935 
-0.00309615 
0.00599862 
-0.00521266 
0.0048179 
0.00767721 
0.00143193 
0.00459888 
0.00557933 
0.00541173 
0.00705205 
0.00993181 
0.00879505 
0.00932321 
0.0101674 
0.0110139 
-0.000330413 
-0.000292496 
-0.000382186 
-0.000294136 
-0.000293539 
-0.000312787 
-0.000256334 
-0.000274079 
-0.000287858 
-0.000321306 
-0.000168655 
-0.00013787 
-0.000242061 
-0.000297104 
-0.000210074 
-0.000307117 
-0.000207982 
-0.000145367 
-0.000398049 
-0.000367418 
-0.000379321 
-0.000375062 
-0.000413837 
-0.000395624 
-0.000189438 
-0.000173769 
-0.000259734 
-0.000218361 
-0.000249459 
-0.000216241 
0.00476009 
0.00662461 
0.00625497 
0.00968131 
0.00718117 
0.00440861 
0.00642851 
0.0091032 
0.00118907 
0.00777198 
0.00929962 
0.00560884 
-0.00272624 
0.00337161 
0.00920832 
0.00915496 
0.00950759 
0.00865019 
0.00561435 
0.00575615 
0.00534212 
0.00497499 
0.00296762 
0.00436683 
0.00314474 
0.00168892 
0.000749593 
0.00324588 
0.00894043 
0.00578459 
0.0029893 
-0.000340516 
-0.000321507 
-0.000212108 
-0.000384414 
-0.000414675 
-0.000446783 
-0.000449897 
-0.000360305 
-0.000396224 
-0.000415269 
-0.000361195 
-0.000234627 
-0.000359595 
-0.000332196 
-0.000239342 
-0.00016264 
-0.000185603 
-0.000446066 
-0.000481161 
-0.000443185 
-0.000395998 
-0.000321705 
-0.00038024 
-0.000365545 
-0.000296972 
0.00287054 
0.0040862 
0.00395425 
-0.00013461 
0.000182735 
-0.00825408 
-0.00172262 
-0.000139389 
-7.94877e-05 
-0.000311793 
0.000863192 
-0.000152741 
-0.000333661 
-0.000115448 
-0.0001808 
0.0069972 
5.95822e-05 
0.00544021 
0.00206839 
0.00194804 
-0.000105333 
0.00292018 
0.009523 
-0.000275799 
-0.00190794 
-0.000287381 
-0.00010153 
-0.000231348 
-9.41366e-05 
-3.66687e-05 
-0.000256395 
0.00319321 
-0.000184793 
-0.00096121 
-0.000135585 
-0.000631635 
-9.29074e-05 
0.0059809 
-0.000118003 
-8.7503e-05 
0.00802296 
-0.000120641 
-0.000399596 
0.00570287 
0.00812911 
-7.06301e-05 
0.0012622 
0.00195313 
0.00283138 
0.00210151 
-0.000165711 
0.000365339 
-0.00023158 
-0.000174847 
-0.000245176 
0.00825898 
0.00196477 
-9.16532e-05 
-8.33138e-05 
-0.000458423 
-0.000830881 
-0.000196602 
-0.000138438 
-8.9768e-05 
0.00785267 
0.00712435 
0.00406836 
0.00702782 
0.00196918 
-0.00614557 
0.00479684 
0.00343358 
0.00602839 
0.0036819 
0.00801803 
0.00116416 
0.00296085 
0.00338757 
0.00820577 
-0.00773876 
-0.00133212 
0.00804222 
0.00763739 
0.00607578 
0.00707422 
0.00690605 
0.005117 
0.00604089 
0.00583572 
0.00970754 
0.00899303 
0.00794159 
-0.00030696 
-0.000272494 
-0.000192097 
-0.000178346 
-0.000205977 
-0.000196668 
-0.000132567 
-0.000109361 
-0.000246709 
-0.000189516 
-0.000184439 
-0.000294917 
-0.000274659 
-0.000295384 
-0.000233262 
-0.00027109 
-0.000370521 
-0.000461867 
-0.000249848 
-0.000315801 
-0.00043846 
-0.000495979 
-0.000322071 
-0.000352985 
-0.00044616 
-0.000488374 
-0.000351357 
-0.000428581 
0.00326996 
0.00251973 
0.00186911 
0.00314847 
0.00162611 
0.00362533 
0.0076476 
0.00210319 
0.00564677 
0.00857313 
0.00317306 
0.00499087 
0.00411097 
0.00366054 
0.00484854 
0.00489592 
0.0106138 
0.00960193 
0.0108003 
0.0136394 
0.0176552 
0.015434 
0.0172583 
0.0176307 
0.00686035 
0.00656189 
0.00760675 
0.0115383 
-0.000227113 
-0.000280623 
-0.000199262 
-0.000223193 
-0.000258151 
-0.000335675 
-0.000249504 
-0.000271062 
-0.00037786 
-0.000516524 
-0.000324738 
-0.000332992 
-0.000487927 
-0.000539544 
-0.000310349 
-0.000446402 
-0.000389227 
-0.000343687 
-0.000393104 
-0.000400747 
-0.000581453 
-0.000506918 
-0.000459523 
-0.000464017 
-0.000552264 
-0.000615444 
-0.000546507 
-0.00052061 
0.00828449 
0.00646087 
0.00813144 
0.0109205 
0.0108558 
0.00790558 
0.00990949 
0.0115924 
0.0129008 
0.0109744 
0.0150882 
0.00411029 
0.00413647 
0.00602907 
0.0199381 
0.0103772 
0.00964771 
0.013205 
0.0213222 
0.0136575 
0.0151408 
0.0148551 
0.0172518 
0.0110415 
0.00946408 
-0.000479571 
-0.000449264 
-0.000418877 
-0.000448859 
-0.000550197 
-0.000527322 
-0.000518404 
-0.000608807 
-0.000584368 
-0.000599609 
-0.00064998 
-0.000681432 
-0.0006411 
-0.000658581 
-0.000433695 
-0.000300239 
-0.000135333 
-0.000158142 
-0.000581958 
-0.00044032 
-0.000109455 
-7.63722e-05 
-0.000593516 
-0.000518904 
-0.000139979 
-8.92696e-05 
-0.000444562 
-0.000174917 
-0.000138705 
-0.000382749 
-0.000373859 
-0.00178443 
-0.000287038 
0.0110813 
-0.000155545 
0.0117494 
-0.000108723 
-0.000481514 
-0.000172057 
-0.000258157 
-0.000291778 
0.00756535 
-0.000248149 
1.12693e-05 
0.0065795 
-0.000203632 
0.0111223 
0.00402742 
0.00921921 
-0.0003185 
-7.29204e-05 
-0.000573286 
0.0053653 
-0.00154855 
0.00695472 
0.0150701 
-0.00335853 
-0.000289817 
-0.000132597 
-0.00534452 
-2.04492e-05 
-0.000462895 
0.000890024 
0.00496423 
-8.2437e-05 
-0.00206352 
-0.000464488 
0.00982703 
0.000961997 
-0.000272084 
0.00632587 
0.00357585 
0.00380793 
0.00747786 
-0.000165884 
-4.74838e-05 
0.0103766 
-0.000543566 
-9.80731e-06 
-0.000142388 
ITEM: TIMESTEP
2400000
ITEM: NUMBER OF ATOMS
896
ITEM: BOX BOUNDS pp pp ff
-1.7153631884999999e+01 1.8003017117999999e+01
-1.7855467918999999e+01 1.7553981017000002e+01
-3.4618715923000003e+01 3.4618715923000003e+01
ITEM: ATOMS q 
0.0128857 
0.0115355 
0.00691829 
0.00589006 
0.0149859 
0.00930718 
0.00980929 
0.0154242 
0.00861136 
0.0108555 
0.0134803 
0.00875455 
0.00601529 
0.00623815 
0.00589826 
0.00568599 
0.0141633 
0.00896873 
0.0067328 
0.00673065 
0.00469945 
0.00566656 
0.00397138 
0.00458738 
-0.000476795 
-0.000332898 
-0.000312598 
-0.000372588 
-0.000655375 
-0.000495051 
-0.000489362 
-0.000507629 
-0.000577112 
-0.000532007 
-0.000479001 
-0.000323992 
-0.000347829 
-0.000331919 
-0.000298161 
-0.000405007 
-0.000373249 
-0.000303149 
-0.00025911 
-0.000318802 
-0.00030567 
0.0140938 
0.00734926 
0.00735455 
0.0033643 
0.00569175 
0.00734803 
0.00432525 
0.00433279 
0.00684433 
0.00580402 
0.00434673 
0.0037709 
0.00490515 
0.00233906 
0.00167903 
0.00341055 
0.000322001 
-5.33841e-05 
0.00153492 
0.000181861 
0.00279996 
0.00245545 
0.00171831 
0.0076444 
0.00280442 
0.0018623 
0.00487965 
0.00603151 
0.00393025 
0.00256967 
0.00194683 
0.00351938 
-0.000425401 
-0.000370354 
-0.00028263 
-0.000185249 
-0.000327446 
-0.000261019 
-0.000213681 
-0.00020418 
-0.000292394 
-0.000234453 
-0.000215278 
-0.000204153 
-0.000244619 
-0.000197615 
-0.000202738 
-0.000232858 
-0.000151467 
-0.000179159 
-0.00020537 
-0.000236123 
-0.000210596 
-0.000255893 
-0.000246392 
-0.000296069 
-0.000397473 
-0.000259511 
-0.000270304 
-0.000374507 
0.00426822 
-0.000856363 
0.0021899 
0.00236352 
0.0076224 
0.00381857 
0.00189795 
0.00724384 
0.00599353 
0.00630717 
0.00567655 
0.00553177 
0.00735409 
0.00807811 
5.36283e-05 
0.0038075 
0.00721565 
0.00913076 
0.0080146 
0.00300147 
0.00601463 
0.00606944 
0.00371759 
0.00855443 
0.00428199 
0.00320311 
0.00393836 
-0.000240879 
-0.000320268 
-0.000278309 
-0.000210001 
-0.000209268 
-0.000240276 
-0.000285729 
-0.000309031 
-0.000263056 
-0.000309041 
-0.000361355 
-0.000304871 
-0.000334232 
-0.000340641 
-0.000394346 
-0.000287286 
-0.000246063 
-0.00023653 
-0.000250812 
-0.000340011 
-0.00031269 
-0.000276482 
-0.000251227 
-0.000405531 
-0.000330337 
-0.000273808 
-0.000262184 
-0.00020046 
-0.000454105 
0.00306082 
-0.000389595 
0.00564728 
0.00322706 
0.00994006 
-0.000409183 
-0.000402766 
-0.000394995 
-0.000381311 
-0.000423161 
0.00457209 
-0.000351992 
0.00398602 
0.00541772 
0.007766 
0.00803258 
0.00572856 
0.00654062 
-0.000310408 
0.00539998 
0.00548042 
-0.000296225 
-0.000394739 
-0.000367935 
-0.000350969 
0.00188343 
0.00792196 
-0.000431424 
0.00560595 
-0.00045338 
-0.000395685 
0.00991163 
0.00284098 
-0.000467908 
0.011035 
-0.000511219 
-0.000378249 
0.0143369 
-0.000334972 
0.00637782 
-0.000370168 
-0.000341688 
-0.000437565 
0.00970737 
0.00490826 
0.0129042 
0.00385583 
-0.000313125 
0.0128615 
0.0122857 
0.010867 
-0.000356382 
-0.00044052 
-0.000475857 
-0.000341266 
0.0128798 
-0.000375044 
-0.000404671 
0.00834261 
-0.000454426 
0.00518638 
0.00694796 
-0.000446129 
0.000130338 
-0.000315455 
-0.00026617 
0.00608737 
-0.000332314 
0.00553683 
0.00699276 
0.00221635 
0.00364208 
0.00656185 
0.00696095 
0.00930669 
0.00343539 
0.000861619 
0.00130166 
0.00149101 
0.00613552 
0.00321046 
0.00192243 
0.00138906 
0.000304388 
0.00411652 
0.00276624 
-0.000218138 
0.00247818 
0.000591886 
-0.000789278 
-0.00235396 
-0.00114714 
0.0017047 
-0.00377229 
-0.000262908 
-0.000244361 
-0.000237369 
-0.00022799 
-0.000231825 
-0.000283657 
-0.000236802 
-0.000162049 
-0.000206613 
-0.000188197 
-0.000164089 
-0.000211949 
-0.000154442 
-0.000161882 
-0.000127811 
-9.58576e-05 
-0.00011912 
-0.000124399 
-0.000104612 
-0.000126503 
-0.000178308 
-8.43687e-05 
-9.61671e-05 
-0.000130835 
0.00157377 
0.00162038 
0.00777727 
0.00724887 
0.00668364 
0.00826772 
0.00876532 
0.00871636 
0.0087541 
0.015358 
0.0116509 
0.00604626 
0.013302 
0.0105184 
0.00424289 
0.00522644 
0.00582111 
0.00615248 
0.00416856 
0.000274368 
0.00679976 
0.00684281 
0.005936 
0.00768595 
0.00540639 
0.00773523 
0.00993815 
0.0102369 
0.00628499 
0.00351882 
0.00865076 
0.00917183 
-0.00034303 
-0.000259015 
-0.000299581 
-0.000393784 
-0.000436944 
-0.000407218 
-0.000401794 
-0.000390179 
-0.000505934 
-0.000461813 
-0.000417881 
-0.000414198 
-0.00041734 
-0.000487681 
-0.000427704 
-0.000370624 
-0.00033183 
-0.000235893 
-0.000187916 
-0.000265169 
-0.000332828 
-0.000294969 
-0.000268121 
-0.000298261 
-0.00039088 
-0.000344131 
-0.000347161 
-0.000424034 
-0.000399541 
-0.000439029 
-0.000454659 
-0.000446046 
0.0102752 
0.0124646 
-0.000171951 
0.00682286 
-0.000288642 
-0.000145696 
-0.000189111 
-0.000442065 
-0.000318705 
-0.000238066 
-0.000445869 
-0.000460241 
0.00600948 
-0.000506579 
0.0161108 
-0.00052738 
-0.000118417 
-0.000296941 
0.0136983 
-0.000414234 
-0.000240342 
-0.000216219 
-0.00039675 
-0.000384841 
-0.000302908 
-0.000268228 
0.0154997 
0.0124868 
-0.00040564 
-0.000328783 
0.0160939 
-3.11863e-06 
0.0138865 
-0.000395748 
-0.000842084 
0.00120519 
0.0021699 
0.00146132 
0.00413501 
0.0106126 
0.00205016 
0.00650113 
0.00496802 
0.00586943 
0.0111859 
-0.000337911 
-0.000326045 
-0.000143917 
0.00445525 
0.0046981 
-0.000378017 
-0.000440624 
0.00500027 
0.00698279 
0.00581108 
0.0112658 
-0.000419642 
-0.000130624 
-0.000492781 
0.00384088 
-0.000234689 
-0.000176542 
-0.000392201 
0.00451163 
0.00287676 
0.00947833 
0.0065501 
-0.00012079 
-0.000311733 
-0.000186194 
0.00667721 
0.00383609 
0.00557558 
-0.000276859 
-0.000433077 
0.00470163 
-0.000303978 
-0.000218452 
-0.000297844 
0.0032714 
-0.000330684 
0.00344598 
0.00471587 
-0.000252295 
0.00876519 
-0.000283304 
-4.83692e-05 
-0.000335635 
0.00720197 
-0.000248834 
0.00576837 
0.00404317 
0.00743781 
-0.000262203 
0.00758937 
0.00226977 
0.00468147 
-0.000150815 
0.00794449 
0.0149181 
-0.000291151 
-0.00029644 
-0.000110444 
-0.000177874 
-0.000296892 
0.00669943 
0.00139952 
0.00274317 
0.00546865 
0.0117998 
0.00402058 
0.00480669 
0.00389246 
0.00529534 
0.00549684 
0.00325881 
0.00449403 
0.00249691 
0.00608412 
0.00626018 
0.00544027 
0.00634736 
0.0070328 
0.0024509 
0.00413273 
0.00645534 
0.00386841 
0.00575028 
0.00176292 
0.00184531 
0.0023287 
0.00230988 
-0.00122996 
-0.000252207 
-0.000211854 
-0.000249865 
-0.000279971 
-0.000286394 
-0.00024617 
-0.000258855 
-0.000229666 
-0.000272367 
-0.000244492 
-0.000228074 
-0.000219794 
-0.000234586 
-0.000230896 
-0.000302968 
-0.000314481 
-0.000336441 
-0.000235762 
-0.000294296 
-0.000319149 
-0.000190184 
-0.000208615 
-0.000244354 
-0.000230601 
-0.000308297 
0.00108919 
0.00763469 
0.00603861 
0.00032407 
0.00402022 
0.0029064 
0.00943856 
0.00181222 
-0.00137429 
-0.00176187 
0.0211546 
0.00853706 
0.00241004 
0.00408784 
0.000320125 
0.00536388 
0.0101273 
0.00363174 
0.00838109 
0.0129351 
-0.000809991 
0.00522927 
0.0100966 
0.00993045 
0.00647047 
0.00559073 
0.0094074 
0.0140975 
-0.000182876 
-0.000243008 
-0.000159957 
-0.000195459 
-0.00026649 
-0.000317221 
-0.000214133 
-0.000149046 
-0.000229455 
-0.000236291 
-0.000317455 
-0.000194114 
-0.000203943 
-0.000268765 
-0.00028421 
-0.000412008 
-0.000412778 
-0.000492523 
-0.000373766 
-0.000468425 
-0.000532576 
-0.000329649 
-0.000401919 
-0.000441968 
-0.000267212 
-0.000290147 
-0.000411542 
-0.000304119 
-0.000387534 
-0.000346141 
0.00626053 
0.00427044 
0.00885773 
0.00674121 
0.00475037 
0.00879615 
0.0072952 
0.00765881 
0.00483742 
0.00390395 
0.00451323 
0.00464976 
0.00808583 
0.00673076 
0.00352175 
0.00647303 
0.00682757 
0.00858883 
0.00694115 
0.00388247 
0.00851541 
0.0112694 
0.00485913 
0.00517022 
0.00941592 
0.00805871 
0.00510136 
0.00331562 
0.00506414 
0.0113096 
0.00711254 
-0.000359993 
-0.000303133 
-0.00029197 
-0.000370078 
-0.000371335 
-0.000343222 
-0.000329146 
-0.000341574 
-0.000372871 
-0.000348322 
-0.000358345 
-0.000331956 
-0.000322299 
-0.000344998 
-0.000328448 
-0.000389022 
-0.000354773 
-0.000352812 
-0.000369645 
-0.000360995 
-0.000349197 
-0.000399577 
-0.000406784 
-0.000405662 
-0.000392004 
0.00288074 
-0.000261532 
0.00956195 
0.00863842 
0.0124969 
0.0135197 
-0.000182285 
0.00157006 
-0.000570271 
0.00146845 
0.00300926 
0.00285996 
-0.000495174 
-0.000159157 
0.00717705 
0.00508141 
0.00598446 
0.00205776 
-0.000444733 
0.00973326 
-0.000279187 
0.0112059 
0.00349304 
0.00238933 
-0.000175001 
-0.000122575 
0.00412569 
-0.00849867 
-0.000553042 
-0.000460946 
-0.000294276 
-0.000496038 
-0.000227744 
2.03244e-05 
-0.000163427 
0.00524696 
-0.000383662 
-0.000520134 
0.00625382 
0.0118042 
0.00551394 
-0.000164676 
-0.000412038 
-0.00529819 
0.0106566 
-0.000327497 
-0.000176665 
-0.000472336 
-0.00036758 
0.00546912 
-6.688e-05 
0.00664013 
-0.000301323 
0.00282589 
0.00574322 
-0.000348765 
0.011076 
-9.23291e-05 
-0.00138442 
-8.94004e-05 
-0.000353072 
-0.000264626 
-8.51668e-06 
0.00867525 
0.00289332 
0.00428379 
0.00443959 
0.00642668 
0.00391919 
0.00260129 
0.00703458 
-0.000834024 
-0.0118188 
0.00573918 
-0.00157337 
0.00525811 
0.00439247 
0.00784311 
0.00674461 
0.00349478 
0.00703862 
0.00356216 
-0.000300857 
-0.00373843 
0.00239594 
0.000402183 
-0.00121583 
0.00404984 
0.00863657 
0.00460769 
-1.01871e-05 
-0.00408776 
-0.000305482 
-0.000319713 
-0.000323327 
-0.000295459 
-0.000271064 
-0.000263834 
-0.000240514 
-0.000179455 
-0.000132819 
-0.000111288 
-4.75173e-05 
-2.25225e-05 
-5.49163e-05 
-3.99448e-05 
-0.000311556 
-0.000378801 
-0.000393005 
-0.00030529 
-0.000160585 
-0.000236752 
-0.000205431 
-0.000123236 
-9.37187e-05 
-8.71458e-05 
-8.05556e-05 
-6.19656e-05 
-0.000197782 
-0.000155741 
-0.00055086 
0.00560947 
0.00798404 
-6.53192e-05 
-0.00306569 
-0.00178272 
0.00215489 
0.00279923 
0.00214086 
0.00138914 
0.000132501 
0.00756633 
-0.00117319 
0.00266045 
0.0101708 
0.00865261 
-1.34522e-05 
-0.00430855 
-0.00441496 
0.000591515 
0.0025006 
0.00333087 
0.0021144 
0.00340784 
0.0013484 
0.00510505 
0.00621873 
0.00454352 
-0.000131549 
-0.000132002 
-2.22295e-05 
-0.000108298 
-0.000112738 
-7.05108e-05 
-5.51206e-05 
-1.76196e-05 
-3.94434e-05 
-6.8139e-05 
-0.000172765 
-0.000112555 
-0.000110863 
-0.000168311 
-0.000217686 
-0.000164969 
-0.000141862 
-0.000261964 
-0.000231337 
-0.000227642 
-8.37858e-05 
-0.000105606 
-0.000201263 
-0.000223077 
-0.000164321 
-0.000138253 
-0.000189539 
-0.000208814 
0.00751289 
0.00615126 
0.00528385 
0.00190045 
0.00357076 
0.00433609 
0.000820521 
0.00368389 
0.00236009 
-0.000963337 
0.0022834 
0.00929289 
0.0123835 
0.00636656 
0.0133887 
0.00644064 
0.0101454 
0.012218 
0.0115901 
0.00103367 
0.00465445 
0.00617477 
0.00859452 
-0.000784125 
0.000631721 
-0.00032069 
-0.000415244 
-0.000464622 
-0.000457378 
-0.00017851 
-0.000274582 
-0.000364353 
-0.000338516 
-9.11041e-05 
-0.00016591 
-0.00022298 
-0.000178482 
-0.000126508 
-0.000151983 
-0.000443155 
-0.000344545 
-0.00013641 
-7.8564e-05 
-0.000349451 
-0.00035497 
-9.53406e-05 
-6.30572e-05 
-0.000200469 
-0.000238042 
-8.67138e-05 
-0.000100161 
-0.00015398 
-9.38259e-05 
-0.000312838 
-9.39597e-05 
-0.000302891 
-0.000271687 
-1.30614e-05 
-0.00021455 
-8.15771e-05 
0.00656507 
-0.000262249 
-0.000241483 
-0.000250231 
0.00704343 
-0.000215392 
0.00247432 
0.00268812 
0.0150824 
0.00561451 
-0.000126822 
-0.000265274 
0.00500754 
-0.000321186 
-0.000249618 
0.00924842 
-0.000109895 
-0.000225492 
0.00171559 
-0.000196566 
0.000807139 
-0.00028151 
0.00752313 
0.00321519 
0.0181169 
0.00320853 
-0.000276482 
0.00429214 
0.0113667 
0.00292985 
0.00356425 
-0.000294028 
-0.000306112 
-0.000178883 
0.00808229 
0.00808038 
0.00775928 
-3.20057e-05 
2.40851e-05 
-6.55836e-05 
0.00400322 
0.00810564 
-0.00020157 
0.00541305 
-0.000275443 
ITEM: TIMESTEP
2600000
ITEM: NUMBER OF ATOMS
896
ITEM: BOX BOUNDS pp pp ff
-1.7153631884999999e+01 1.8003017117999999e+01
-1.7855467918999999e+01 1.7553981017000002e+01
-3.4618715923000003e+01 3.4618715923000003e+01
ITEM: ATOMS q 
-0.0188471 
-0.00395797 
0.0074713 
0.00753043 
0.00495873 
-0.00965366 
0.00192584 
0.00742765 
0.00613553 
0.00867683 
0.0113661 
0.00765128 
0.010985 
0.00509914 
0.00596743 
0.00301832 
0.00805942 
0.0101835 
0.00571752 
-0.000128226 
0.00696964 
0.00583414 
0.00303912 
0.00242048 
-7.78562e-05 
-0.000231485 
-0.000328918 
-0.000373974 
-0.000312011 
-0.000225898 
-0.000386764 
-0.000412977 
-0.000473132 
-0.000418043 
-0.000412404 
-0.000397587 
-0.000348715 
-0.000355001 
-0.000281641 
-0.000347218 
-0.000318821 
-0.000236102 
-0.000327418 
-0.000281762 
-0.000243528 
0.00150154 
0.00399709 
0.00340442 
0.00682695 
0.00296037 
0.00413913 
0.00960922 
0.00686972 
0.00769871 
0.00534354 
0.00433667 
0.00367055 
0.0079304 
0.00573356 
0.00546941 
0.007765 
0.0053451 
0.00639938 
0.00364883 
0.00275684 
0.00431948 
0.00465127 
-0.000126165 
0.000814375 
0.00328583 
0.00251874 
0.00514414 
0.00270486 
0.0147882 
0.0098464 
0.00421597 
-7.9507e-05 
-0.000441507 
-0.000365682 
-0.000394108 
-0.000350294 
-0.000449051 
-0.000370003 
-0.000349219 
-0.000316409 
-0.000448776 
-0.000340789 
-0.000327845 
-0.000343047 
-0.000528102 
-0.000382229 
-0.000412447 
-0.000434286 
-0.000302152 
-0.000301047 
-0.000313193 
-0.000263007 
-0.000250015 
-0.000280057 
-0.000309981 
-0.000251867 
-0.000202465 
-0.000298152 
-0.000272057 
-0.000189962 
-0.00142042 
0.000508621 
0.00350368 
0.00280511 
0.00197969 
0.00242397 
0.00254161 
0.00658619 
0.00224059 
0.00203002 
0.00490592 
0.00425148 
0.00507251 
0.00620435 
0.00775776 
0.00984483 
0.00997002 
0.00931221 
0.0106295 
0.00871453 
0.00277445 
0.00623586 
0.00478228 
0.00325146 
0.0109081 
0.00900565 
0.00310713 
-0.000198977 
-0.00023353 
-0.000292511 
-0.000216473 
-0.0002799 
-0.000335201 
-0.000357749 
-0.00027468 
-0.000278293 
-0.00036531 
-0.000417244 
-0.000316264 
-0.000312054 
-0.000349369 
-0.000307772 
-0.000450589 
-0.00047977 
-0.000527427 
-0.000526991 
-0.000444085 
-0.00050281 
-0.000520377 
-0.000482359 
-0.000308467 
-0.000384411 
-0.000396586 
-0.000340788 
-0.000203062 
-0.000236716 
-0.000348187 
0.00737819 
0.00263785 
0.00537752 
0.00126154 
-0.000257051 
-0.00025196 
-0.000296624 
-0.000166005 
0.00564362 
0.00217311 
-0.000348465 
-0.000181103 
-0.000279138 
0.00316662 
-0.000280596 
-0.000314434 
0.00347882 
0.00309231 
-0.000256268 
-0.000204028 
-0.000269182 
0.00784634 
0.00568106 
0.00616135 
-0.000355106 
0.0047933 
-0.000185526 
-0.000306026 
-0.000310141 
0.00835146 
-0.00029511 
-0.000184051 
0.00306225 
0.0017579 
-0.000353881 
0.00171556 
-0.000384925 
0.0048305 
-0.000369409 
0.000655288 
-0.000317662 
0.000291417 
-0.000345947 
-0.000282863 
0.000714242 
-0.000291074 
0.00904425 
0.000754393 
0.00995597 
0.00641275 
0.00283102 
-0.000298644 
0.00245157 
0.00194289 
-0.000500223 
0.0057951 
-0.00020313 
-0.000315977 
-0.000289406 
0.0015336 
-0.000331523 
-0.000202215 
0.00222949 
0.00777752 
0.00160774 
0.00307269 
0.0053087 
-0.000346252 
-0.000221448 
0.0112387 
0.00839801 
0.00315416 
0.0114888 
0.0110066 
0.0111361 
0.00580165 
0.00695891 
0.00181921 
0.00453827 
0.00527519 
0.00530173 
0.00311294 
0.00517114 
0.00481004 
0.00402323 
0.00506545 
0.00451829 
0.00521769 
0.00508936 
0.00838492 
0.000326393 
0.00104393 
0.00586443 