ITEM: TIMESTEP
2000000
ITEM: NUMBER OF ATOMS
896
ITEM: BOX BOUNDS pp pp ff
-1.7153631884999999e+01 1.8003017117999999e+01
-1.7855467918999999e+01 1.7553981017000002e+01
-3.4618715923000003e+01 3.4618715923000003e+01
ITEM: ATOMS q x y z 
0 -14.4256 -17.3555 30.7687 
0 -15.6536 -16.6465 30.7687 
0 -15.6536 -15.2285 30.7687 
0 -14.4256 -14.5195 30.7687 
0 -11.9696 -17.3555 30.7687 
0 -13.1976 -16.6465 30.7687 
0 -13.1976 -15.2285 30.7687 
0 -11.9696 -14.5195 30.7687 
0 -9.51351 -17.3555 30.7687 
0 -10.7415 -16.6465 30.7687 
0 -10.7415 -15.2285 30.7687 
0 -9.51351 -14.5195 30.7687 
0 -14.4256 -13.1015 30.7687 
0 -15.6536 -12.3925 30.7687 
0 -15.6536 -10.9745 30.7687 
0 -14.4256 -10.2655 30.7687 
0 -11.9696 -13.1015 30.7687 
0 -13.1976 -12.3925 30.7687 
0 -13.1976 -10.9745 30.7687 
0 -11.9696 -10.2655 30.7687 
0 -9.51351 -13.1015 30.7687 
0 -10.7415 -12.3925 30.7687 
0 -10.7415 -10.9745 30.7687 
0 -9.51351 -10.2655 30.7687 
0 -14.4256 -15.9375 34.1187 
0 -15.6536 -15.2285 34.1187 
0 -15.6536 -13.8105 34.1187 
0 -14.4256 -13.1015 34.1187 
0 -11.9696 -15.9375 34.1187 
0 -13.1976 -15.2285 34.1187 
0 -13.1976 -13.8105 34.1187 
0 -11.9696 -13.1015 34.1187 
0 -9.51351 -15.9375 34.1187 
0 -10.7415 -15.2285 34.1187 
0 -10.7415 -13.8105 34.1187 
0 -9.51351 -13.1015 34.1187 
0 -14.4256 -11.6835 34.1187 
0 -15.6536 -10.9745 34.1187 
0 -15.6536 -9.55647 34.1187 
0 -11.9696 -11.6835 34.1187 
0 -13.1976 -10.9745 34.1187 
0 -13.1976 -9.55647 34.1187 
0 -9.51351 -11.6835 34.1187 
0 -10.7415 -10.9745 34.1187 
0 -10.7415 -9.55647 34.1187 
0 -7.05746 -17.3555 30.7687 
0 -8.28549 -16.6465 30.7687 
0 -8.28549 -15.2285 30.7687 
0 -7.05746 -14.5195 30.7687 
0 -4.60142 -17.3555 30.7687 
0 -5.82944 -16.6465 30.7687 
0 -5.82944 -15.2285 30.7687 
0 -4.60142 -14.5195 30.7687 
0 -2.14537 -17.3555 30.7687 
0 -3.37339 -16.6465 30.7687 
0 -3.37339 -15.2285 30.7687 
0 -2.14537 -14.5195 30.7687 
0 0.31068 -17.3555 30.7687 
0 -0.917343 -16.6465 30.7687 
0 -0.917343 -15.2285 30.7687 
0 0.31068 -14.5195 30.7687 
0 -7.05746 -13.1015 30.7687 
0 -8.28549 -12.3925 30.7687 
0 -8.28549 -10.9745 30.7687 
0 -7.05746 -10.2655 30.7687 
0 -4.60142 -13.1015 30.7687 
0 -5.82944 -12.3925 30.7687 
0 -5.82944 -10.9745 30.7687 
0 -4.60142 -10.2655 30.7687 
0 -2.14537 -13.1015 30.7687 
0 -3.37339 -12.3925 30.7687 
0 -3.37339 -10.9745 30.7687 
0 -2.14537 -10.2655 30.7687 
0 0.31068 -13.1015 30.7687 
0 -0.917343 -12.3925 30.7687 
0 -0.917343 -10.9745 30.7687 
0 0.31068 -10.2655 30.7687 
0 -7.05746 -15.9375 34.1187 
0 -8.28549 -15.2285 34.1187 
0 -8.28549 -13.8105 34.1187 
0 -7.05746 -13.1015 34.1187 
0 -4.60142 -15.9375 34.1187 
0 -5.82944 -15.2285 34.1187 
0 -5.82944 -13.8105 34.1187 
0 -4.60142 -13.1015 34.1187 
0 -2.14537 -15.9375 34.1187 
0 -3.37339 -15.2285 34.1187 
0 -3.37339 -13.8105 34.1187 
0 -2.14537 -13.1015 34.1187 
0 0.31068 -15.9375 34.1187 
0 -0.917343 -15.2285 34.1187 
0 -0.917343 -13.8105 34.1187 
0 0.31068 -13.1015 34.1187 
0 -7.05746 -11.6835 34.1187 
0 -8.28549 -10.9745 34.1187 
0 -8.28549 -9.55647 34.1187 
0 -4.60142 -11.6835 34.1187 
0 -5.82944 -10.9745 34.1187 
0 -5.82944 -9.55647 34.1187 
0 -2.14537 -11.6835 34.1187 
0 -3.37339 -10.9745 34.1187 
0 -3.37339 -9.55647 34.1187 
0 0.31068 -11.6835 34.1187 
0 -0.917343 -10.9745 34.1187 
0 -0.917343 -9.55647 34.1187 
0 -14.4256 -8.84747 30.7687 
0 -15.6536 -8.13847 30.7687 
0 -15.6536 -6.72047 30.7687 
0 -14.4256 -6.01147 30.7687 
0 -11.9696 -8.84747 30.7687 
0 -13.1976 -8.13847 30.7687 
0 -13.1976 -6.72047 30.7687 
0 -11.9696 -6.01147 30.7687 
0 -9.51351 -8.84747 30.7687 
0 -10.7415 -8.13847 30.7687 
0 -10.7415 -6.72047 30.7687 
0 -9.51351 -6.01147 30.7687 
0 -14.4256 -4.59347 30.7687 
0 -15.6536 -3.88447 30.7687 
0 -15.6536 -2.46647 30.7687 
0 -14.4256 -1.75747 30.7687 
0 -11.9696 -4.59347 30.7687 
0 -13.1976 -3.88447 30.7687 
0 -13.1976 -2.46647 30.7687 
0 -11.9696 -1.75747 30.7687 
0 -9.51351 -4.59347 30.7687 
0 -10.7415 -3.88447 30.7687 
0 -10.7415 -2.46647 30.7687 
0 -9.51351 -1.75747 30.7687 
0 -14.4256 -0.339467 30.7687 
0 -11.9696 -0.339467 30.7687 
0 -9.51351 -0.339467 30.7687 
0 -14.4256 -8.84747 34.1187 
0 -11.9696 -8.84747 34.1187 
0 -9.51351 -8.84747 34.1187 
0 -14.4256 -7.42947 34.1187 
0 -15.6536 -6.72047 34.1187 
0 -15.6536 -5.30247 34.1187 
0 -14.4256 -4.59347 34.1187 
0 -11.9696 -7.42947 34.1187 
0 -13.1976 -6.72047 34.1187 
0 -13.1976 -5.30247 34.1187 
0 -11.9696 -4.59347 34.1187 
0 -9.51351 -7.42947 34.1187 
0 -10.7415 -6.72047 34.1187 
0 -10.7415 -5.30247 34.1187 
0 -9.51351 -4.59347 34.1187 
0 -14.4256 -3.17547 34.1187 
0 -15.6536 -2.46647 34.1187 
0 -15.6536 -1.04847 34.1187 
0 -14.4256 -0.339467 34.1187 
0 -11.9696 -3.17547 34.1187 
0 -13.1976 -2.46647 34.1187 
0 -13.1976 -1.04847 34.1187 
0 -11.9696 -0.339467 34.1187 
0 -9.51351 -3.17547 34.1187 
0 -10.7415 -2.46647 34.1187 
0 -10.7415 -1.04847 34.1187 
0 -9.51351 -0.339467 34.1187 
0 0.31068 -6.01147 30.7687 
0 -4.60142 -3.17547 34.1187 
0 -2.14537 -3.17547 34.1187 
0 -7.05746 -3.17547 34.1187 
0 -2.14537 -7.42947 34.1187 
0 -0.917343 -3.88447 30.7687 
0 -3.37339 -2.46647 30.7687 
0 -8.28549 -5.30247 34.1187 
0 -2.14537 -6.01147 30.7687 
0 -0.917343 -6.72047 30.7687 
0 -5.82944 -6.72047 34.1187 
0 -3.37339 -1.04847 34.1187 
0 -2.14537 -1.75747 30.7687 
0 0.31068 -8.84747 30.7687 
0 -2.14537 -0.339467 34.1187 
0 -4.60142 -1.75747 30.7687 
0 -5.82944 -6.72047 30.7687 
0 0.31068 -8.84747 34.1187 
0 -7.05746 -4.59347 30.7687 
0 -5.82944 -3.88447 30.7687 
0 0.31068 -4.59347 34.1187 
0 -7.05746 -1.75747 30.7687 
0 -8.28549 -1.04847 34.1187 
0 -4.60142 -7.42947 34.1187 
0 -3.37339 -2.46647 34.1187 
0 0.31068 -7.42947 34.1187 
0 -0.917343 -2.46647 34.1187 
0 -4.60142 -4.59347 30.7687 
0 -0.917343 -1.04847 34.1187 
0 -3.37339 -5.30247 34.1187 
0 0.31068 -4.59347 30.7687 
0 -0.917343 -2.46647 30.7687 
0 -8.28549 -2.46647 30.7687 
0 -2.14537 -4.59347 30.7687 
0 -2.14537 -8.84747 34.1187 
0 -0.917343 -8.13847 30.7687 
0 -4.60142 -6.01147 30.7687 
0 -5.82944 -2.46647 34.1187 
0 -4.60142 -0.339467 30.7687 
0 -8.28549 -8.13847 30.7687 
0 -3.37339 -8.13847 30.7687 
0 -2.14537 -4.59347 34.1187 
0 -5.82944 -5.30247 34.1187 
0 -8.28549 -6.72047 30.7687 
0 -0.917343 -5.30247 34.1187 
0 -4.60142 -8.84747 30.7687 
0 -7.05746 -8.84747 30.7687 
0 -2.14537 -8.84747 30.7687 
0 0.31068 -3.17547 34.1187 
0 -4.60142 -8.84747 34.1187 
0 -3.37339 -6.72047 34.1187 
0 -5.82944 -2.46647 30.7687 
0 0.31068 -0.339467 30.7687 
0 -0.917343 -6.72047 34.1187 
0 -5.82944 -8.13847 30.7687 
0 -7.05746 -0.339467 34.1187 
0 -4.60142 -0.339467 34.1187 
0 -3.37339 -3.88447 30.7687 
0 -8.28549 -2.46647 34.1187 
0 -3.37339 -6.72047 30.7687 
0 -5.82944 -1.04847 34.1187 
0 0.31068 -0.339467 34.1187 
0 -8.28549 -6.72047 34.1187 
0 -7.05746 -7.42947 34.1187 
0 0.31068 -1.75747 30.7687 
0 -7.05746 -0.339467 30.7687 
0 -4.60142 -4.59347 34.1187 
0 -2.14537 -0.339467 30.7687 
0 -7.05746 -8.84747 34.1187 
0 -7.05746 -6.01147 30.7687 
0 -8.28549 -3.88447 30.7687 
0 -7.05746 -4.59347 34.1187 
0 -15.6536 0.369532 30.7687 
0 -15.6536 1.78753 30.7687 
0 -14.4256 2.49653 30.7687 
0 -13.1976 0.369532 30.7687 
0 -13.1976 1.78753 30.7687 
0 -11.9696 2.49653 30.7687 
0 -10.7415 0.369532 30.7687 
0 -10.7415 1.78753 30.7687 
0 -9.51351 2.49653 30.7687 
0 -14.4256 3.91453 30.7687 
0 -15.6536 4.62353 30.7687 
0 -15.6536 6.04153 30.7687 
0 -14.4256 6.75053 30.7687 
0 -11.9696 3.91453 30.7687 
0 -13.1976 4.62353 30.7687 
0 -13.1976 6.04153 30.7687 
0 -11.9696 6.75053 30.7687 
0 -9.51351 3.91453 30.7687 
0 -10.7415 4.62353 30.7687 
0 -10.7415 6.04153 30.7687 
0 -9.51351 6.75053 30.7687 
0 -14.4256 8.16853 30.7687 
0 -11.9696 8.16853 30.7687 
0 -9.51351 8.16853 30.7687 
0 -14.4256 1.07853 34.1187 
0 -15.6536 1.78753 34.1187 
0 -15.6536 3.20553 34.1187 
0 -14.4256 3.91453 34.1187 
0 -11.9696 1.07853 34.1187 
0 -13.1976 1.78753 34.1187 
0 -13.1976 3.20553 34.1187 
0 -11.9696 3.91453 34.1187 
0 -9.51351 1.07853 34.1187 
0 -10.7415 1.78753 34.1187 
0 -10.7415 3.20553 34.1187 
0 -9.51351 3.91453 34.1187 
0 -14.4256 5.33253 34.1187 
0 -15.6536 6.04153 34.1187 
0 -15.6536 7.45953 34.1187 
0 -14.4256 8.16853 34.1187 
0 -11.9696 5.33253 34.1187 
0 -13.1976 6.04153 34.1187 
0 -13.1976 7.45953 34.1187 
0 -11.9696 8.16853 34.1187 
0 -9.51351 5.33253 34.1187 
0 -10.7415 6.04153 34.1187 
0 -10.7415 7.45953 34.1187 
0 -9.51351 8.16853 34.1187 
0 -8.28549 0.369532 30.7687 
0 -8.28549 1.78753 30.7687 
0 -7.05746 2.49653 30.7687 
0 -5.82944 0.369532 30.7687 
0 -5.82944 1.78753 30.7687 
0 -4.60142 2.49653 30.7687 
0 -3.37339 0.369532 30.7687 
0 -3.37339 1.78753 30.7687 
0 -2.14537 2.49653 30.7687 
0 -0.917343 0.369532 30.7687 
0 -0.917343 1.78753 30.7687 
0 0.31068 2.49653 30.7687 
0 -7.05746 3.91453 30.7687 
0 -8.28549 4.62353 30.7687 
0 -8.28549 6.04153 30.7687 
0 -7.05746 6.75053 30.7687 
0 -4.60142 3.91453 30.7687 
0 -5.82944 4.62353 30.7687 
0 -5.82944 6.04153 30.7687 
0 -4.60142 6.75053 30.7687 
0 -2.14537 3.91453 30.7687 
0 -3.37339 4.62353 30.7687 
0 -3.37339 6.04153 30.7687 
0 -2.14537 6.75053 30.7687 
0 0.31068 3.91453 30.7687 
0 -0.917343 4.62353 30.7687 
0 -0.917343 6.04153 30.7687 
0 0.31068 6.75053 30.7687 
0 -7.05746 8.16853 30.7687 
0 -4.60142 8.16853 30.7687 
0 -2.14537 8.16853 30.7687 
0 0.31068 8.16853 30.7687 
0 -7.05746 1.07853 34.1187 
0 -8.28549 1.78753 34.1187 
0 -8.28549 3.20553 34.1187 
0 -7.05746 3.91453 34.1187 
0 -4.60142 1.07853 34.1187 
0 -5.82944 1.78753 34.1187 
0 -5.82944 3.20553 34.1187 
0 -4.60142 3.91453 34.1187 
0 -2.14537 1.07853 34.1187 
0 -3.37339 1.78753 34.1187 
0 -3.37339 3.20553 34.1187 
0 -2.14537 3.91453 34.1187 
0 0.31068 1.07853 34.1187 
0 -0.917343 1.78753 34.1187 
0 -0.917343 3.20553 34.1187 
0 0.31068 3.91453 34.1187 
0 -7.05746 5.33253 34.1187 
0 -8.28549 6.04153 34.1187 
0 -8.28549 7.45953 34.1187 
0 -7.05746 8.16853 34.1187 
0 -4.60142 5.33253 34.1187 
0 -5.82944 6.04153 34.1187 
0 -5.82944 7.45953 34.1187 
0 -4.60142 8.16853 34.1187 
0 -2.14537 5.33253 34.1187 
0 -3.37339 6.04153 34.1187 
0 -3.37339 7.45953 34.1187 
0 -2.14537 8.16853 34.1187 
0 0.31068 5.33253 34.1187 
0 -0.917343 6.04153 34.1187 
0 -0.917343 7.45953 34.1187 
0 0.31068 8.16853 34.1187 
0 -10.7415 14.5495 30.7687 
0 -10.7415 13.1315 30.7687 
0 -15.6536 10.2955 34.1187 
0 -9.51351 12.4225 30.7687 
0 -15.6536 11.7135 34.1187 
0 -14.4256 9.58653 34.1187 
0 -13.1976 15.9675 34.1187 
0 -10.7415 11.7135 34.1187 
0 -10.7415 10.2955 34.1187 
0 -9.51351 9.58653 34.1187 
0 -13.1976 14.5495 34.1187 
0 -14.4256 13.8405 34.1187 
0 -9.51351 15.2585 30.7687 
0 -11.9696 13.8405 34.1187 
0 -11.9696 15.2585 30.7687 
0 -11.9696 12.4225 34.1187 
0 -14.4256 16.6765 34.1187 
0 -9.51351 16.6765 34.1187 
0 -13.1976 14.5495 30.7687 
0 -13.1976 11.7135 34.1187 
0 -11.9696 9.58653 34.1187 
0 -10.7415 15.9675 34.1187 
0 -10.7415 14.5495 34.1187 
0 -9.51351 13.8405 34.1187 
0 -11.9696 16.6765 34.1187 
0 -13.1976 10.2955 34.1187 
0 -14.4256 15.2585 30.7687 
0 -13.1976 13.1315 30.7687 
0 -9.51351 12.4225 34.1187 
0 -15.6536 14.5495 34.1187 
0 -15.6536 14.5495 30.7687 
0 -15.6536 15.9675 34.1187 
0 -11.9696 12.4225 30.7687 
0 -14.4256 12.4225 34.1187 
0 -15.6536 8.87753 30.7687 
0 -15.6536 10.2955 30.7687 
0 -14.4256 11.0045 30.7687 
0 -13.1976 8.87753 30.7687 
0 -13.1976 10.2955 30.7687 
0 -11.9696 11.0045 30.7687 
0 -10.7415 8.87753 30.7687 
0 -10.7415 10.2955 30.7687 
0 -9.51351 11.0045 30.7687 
0 -14.4256 12.4225 30.7687 
0 -15.6536 13.1315 30.7687 
0 -5.82944 14.5495 30.7687 
0 -3.37339 13.1315 30.7687 
0 -3.37339 14.5495 30.7687 
0 -2.14537 13.8405 34.1187 
0 0.31068 12.4225 34.1187 
0 -2.14537 16.6765 34.1187 
0 -2.14537 12.4225 30.7687 
0 -4.60142 13.8405 34.1187 
0 0.31068 11.0045 30.7687 
0 -5.82944 10.2955 30.7687 
0 -7.05746 13.8405 34.1187 
0 -0.917343 14.5495 30.7687 
0 -4.60142 12.4225 30.7687 
0 -4.60142 11.0045 30.7687 
0 -5.82944 10.2955 34.1187 
0 -3.37339 10.2955 34.1187 
0 -8.28549 10.2955 34.1187 
0 -7.05746 12.4225 30.7687 
0 -5.82944 11.7135 34.1187 
0 -4.60142 15.2585 30.7687 
0 0.31068 16.6765 34.1187 
0 -2.14537 12.4225 34.1187 
0 -7.05746 15.2585 30.7687 
0 -0.917343 15.9675 34.1187 
0 -2.14537 9.58653 34.1187 
0 -8.28549 8.87753 30.7687 
0 -7.05746 11.0045 30.7687 
0 -7.05746 12.4225 34.1187 
0 -5.82944 8.87753 30.7687 
0 -4.60142 16.6765 34.1187 
0 -0.917343 10.2955 30.7687 
0 -3.37339 10.2955 30.7687 
0 0.31068 9.58653 34.1187 
0 -2.14537 11.0045 30.7687 
0 -3.37339 15.9675 34.1187 
0 -8.28549 14.5495 30.7687 
0 -8.28549 10.2955 30.7687 
0 -0.917343 11.7135 34.1187 
0 -2.14537 15.2585 30.7687 
0 -7.05746 16.6765 34.1187 
0 -0.917343 14.5495 34.1187 
0 -8.28549 14.5495 34.1187 
0 -5.82944 13.1315 30.7687 
0 -5.82944 14.5495 34.1187 
0 -0.917343 8.87753 30.7687 
0 -4.60142 9.58653 34.1187 
0 -8.28549 11.7135 34.1187 
0 0.31068 12.4225 30.7687 
0 0.31068 13.8405 34.1187 
0 -3.37339 11.7135 34.1187 
0 -7.05746 9.58653 34.1187 
0 -5.82944 15.9675 34.1187 
0 -0.917343 10.2955 34.1187 
0 -3.37339 8.87753 30.7687 
0 -8.28549 15.9675 34.1187 
0 -0.917343 13.1315 30.7687 
0 -8.28549 13.1315 30.7687 
0 -3.37339 14.5495 34.1187 
0 0.31068 15.2585 30.7687 
0 -4.60142 12.4225 34.1187 
0 2.76673 -17.3555 30.7687 
0 1.53871 -16.6465 30.7687 
0 1.53871 -15.2285 30.7687 
0 2.76673 -14.5195 30.7687 
0 5.22278 -17.3555 30.7687 
0 3.99475 -16.6465 30.7687 
0 3.99475 -15.2285 30.7687 
0 5.22278 -14.5195 30.7687 
0 7.67883 -17.3555 30.7687 
0 6.4508 -16.6465 30.7687 
0 6.4508 -15.2285 30.7687 
0 7.67883 -14.5195 30.7687 
0 8.90685 -16.6465 30.7687 
0 8.90685 -15.2285 30.7687 
0 2.76673 -13.1015 30.7687 
0 1.53871 -12.3925 30.7687 
0 1.53871 -10.9745 30.7687 
0 2.76673 -10.2655 30.7687 
0 5.22278 -13.1015 30.7687 
0 3.99475 -12.3925 30.7687 
0 3.99475 -10.9745 30.7687 
0 5.22278 -10.2655 30.7687 
0 7.67883 -13.1015 30.7687 
0 6.4508 -12.3925 30.7687 
0 6.4508 -10.9745 30.7687 
0 7.67883 -10.2655 30.7687 
0 8.90685 -12.3925 30.7687 
0 8.90685 -10.9745 30.7687 
0 2.76673 -15.9375 34.1187 
0 1.53871 -15.2285 34.1187 
0 1.53871 -13.8105 34.1187 
0 2.76673 -13.1015 34.1187 
0 5.22278 -15.9375 34.1187 
0 3.99475 -15.2285 34.1187 
0 3.99475 -13.8105 34.1187 
0 5.22278 -13.1015 34.1187 
0 7.67883 -15.9375 34.1187 
0 6.4508 -15.2285 34.1187 
0 6.4508 -13.8105 34.1187 
0 7.67883 -13.1015 34.1187 
0 8.90685 -15.2285 34.1187 
0 8.90685 -13.8105 34.1187 
0 2.76673 -11.6835 34.1187 
0 1.53871 -10.9745 34.1187 
0 1.53871 -9.55647 34.1187 
0 5.22278 -11.6835 34.1187 
0 3.99475 -10.9745 34.1187 
0 3.99475 -9.55647 34.1187 
0 7.67883 -11.6835 34.1187 
0 6.4508 -10.9745 34.1187 
0 6.4508 -9.55647 34.1187 
0 8.90685 -10.9745 34.1187 
0 8.90685 -9.55647 34.1187 
0 10.1349 -17.3555 30.7687 
0 10.1349 -14.5195 30.7687 
0 12.5909 -17.3555 30.7687 
0 11.3629 -16.6465 30.7687 
0 11.3629 -15.2285 30.7687 
0 12.5909 -14.5195 30.7687 
0 15.047 -17.3555 30.7687 
0 13.8189 -16.6465 30.7687 
0 13.8189 -15.2285 30.7687 
0 15.047 -14.5195 30.7687 
0 17.503 -17.3555 30.7687 
0 16.275 -16.6465 30.7687 
0 16.275 -15.2285 30.7687 
0 17.503 -14.5195 30.7687 
0 10.1349 -13.1015 30.7687 
0 10.1349 -10.2655 30.7687 
0 12.5909 -13.1015 30.7687 
0 11.3629 -12.3925 30.7687 
0 11.3629 -10.9745 30.7687 
0 12.5909 -10.2655 30.7687 
0 15.047 -13.1015 30.7687 
0 13.8189 -12.3925 30.7687 
0 13.8189 -10.9745 30.7687 
0 15.047 -10.2655 30.7687 
0 17.503 -13.1015 30.7687 
0 16.275 -12.3925 30.7687 
0 16.275 -10.9745 30.7687 
0 17.503 -10.2655 30.7687 
0 10.1349 -15.9375 34.1187 
0 10.1349 -13.1015 34.1187 
0 12.5909 -15.9375 34.1187 
0 11.3629 -15.2285 34.1187 
0 11.3629 -13.8105 34.1187 
0 12.5909 -13.1015 34.1187 
0 15.047 -15.9375 34.1187 
0 13.8189 -15.2285 34.1187 
0 13.8189 -13.8105 34.1187 
0 15.047 -13.1015 34.1187 
0 17.503 -15.9375 34.1187 
0 16.275 -15.2285 34.1187 
0 16.275 -13.8105 34.1187 
0 17.503 -13.1015 34.1187 
0 10.1349 -11.6835 34.1187 
0 12.5909 -11.6835 34.1187 
0 11.3629 -10.9745 34.1187 
0 11.3629 -9.55647 34.1187 
0 15.047 -11.6835 34.1187 
0 13.8189 -10.9745 34.1187 
0 13.8189 -9.55647 34.1187 
0 17.503 -11.6835 34.1187 
0 16.275 -10.9745 34.1187 
0 16.275 -9.55647 34.1187 
0 8.90685 -1.04847 34.1187 
0 8.90685 -2.46647 34.1187 
0 6.4508 -2.46647 34.1187 
0 7.67883 -0.339467 34.1187 
0 6.4508 -1.04847 34.1187 
0 7.67883 -3.17547 34.1187 
0 2.76673 -8.84747 30.7687 
0 1.53871 -8.13847 30.7687 
0 1.53871 -6.72047 30.7687 
0 2.76673 -6.01147 30.7687 
0 5.22278 -8.84747 30.7687 
0 3.99475 -8.13847 30.7687 
0 3.99475 -6.72047 30.7687 
0 5.22278 -6.01147 30.7687 
0 7.67883 -8.84747 30.7687 
0 6.4508 -8.13847 30.7687 
0 6.4508 -6.72047 30.7687 
0 7.67883 -6.01147 30.7687 
0 8.90685 -8.13847 30.7687 
0 8.90685 -6.72047 30.7687 
0 2.76673 -4.59347 30.7687 
0 1.53871 -3.88447 30.7687 
0 1.53871 -2.46647 30.7687 
0 2.76673 -1.75747 30.7687 
0 5.22278 -4.59347 30.7687 
0 3.99475 -3.88447 30.7687 
0 3.99475 -2.46647 30.7687 
0 5.22278 -1.75747 30.7687 
0 7.67883 -4.59347 30.7687 
0 6.4508 -3.88447 30.7687 
0 6.4508 -2.46647 30.7687 
0 7.67883 -1.75747 30.7687 
0 8.90685 -3.88447 30.7687 
0 8.90685 -2.46647 30.7687 
0 2.76673 -0.339467 30.7687 
0 5.22278 -0.339467 30.7687 
0 7.67883 -0.339467 30.7687 
0 2.76673 -8.84747 34.1187 
0 5.22278 -8.84747 34.1187 
0 7.67883 -8.84747 34.1187 
0 2.76673 -7.42947 34.1187 
0 1.53871 -6.72047 34.1187 
0 1.53871 -5.30247 34.1187 
0 2.76673 -4.59347 34.1187 
0 5.22278 -7.42947 34.1187 
0 3.99475 -6.72047 34.1187 
0 3.99475 -5.30247 34.1187 
0 5.22278 -4.59347 34.1187 
0 7.67883 -7.42947 34.1187 
0 6.4508 -6.72047 34.1187 
0 6.4508 -5.30247 34.1187 
0 7.67883 -4.59347 34.1187 
0 8.90685 -6.72047 34.1187 
0 8.90685 -5.30247 34.1187 
0 2.76673 -3.17547 34.1187 
0 1.53871 -2.46647 34.1187 
0 1.53871 -1.04847 34.1187 
0 2.76673 -0.339467 34.1187 
0 5.22278 -3.17547 34.1187 
0 3.99475 -2.46647 34.1187 
0 3.99475 -1.04847 34.1187 
0 5.22278 -0.339467 34.1187 
0 15.047 -4.59347 34.1187 
0 10.1349 -4.59347 34.1187 
0 12.5909 -1.75747 30.7687 
0 17.503 -0.339467 34.1187 
0 12.5909 -6.01147 30.7687 
0 12.5909 -4.59347 34.1187 
0 16.275 -2.46647 30.7687 
0 17.503 -8.84747 30.7687 
0 17.503 -3.17547 34.1187 
0 12.5909 -0.339467 34.1187 
0 11.3629 -3.88447 30.7687 
0 11.3629 -2.46647 34.1187 
0 15.047 -8.84747 34.1187 
0 17.503 -7.42947 34.1187 
0 12.5909 -3.17547 34.1187 
0 10.1349 -3.17547 34.1187 
0 15.047 -8.84747 30.7687 
0 13.8189 -1.04847 34.1187 
0 11.3629 -2.46647 30.7687 
0 12.5909 -0.339467 30.7687 
0 13.8189 -5.30247 34.1187 
0 15.047 -3.17547 34.1187 
0 16.275 -1.04847 34.1187 
0 11.3629 -6.72047 30.7687 
0 16.275 -5.30247 34.1187 
0 11.3629 -6.72047 34.1187 
0 13.8189 -2.46647 34.1187 
0 15.047 -0.339467 30.7687 
0 16.275 -3.88447 30.7687 
0 10.1349 -0.339467 34.1187 
0 10.1349 -8.84747 34.1187 
0 10.1349 -4.59347 30.7687 
0 17.503 -0.339467 30.7687 
0 16.275 -6.72047 34.1187 
0 10.1349 -8.84747 30.7687 
0 16.275 -8.13847 30.7687 
0 10.1349 -6.01147 30.7687 
0 15.047 -1.75747 30.7687 
0 12.5909 -8.84747 30.7687 
0 12.5909 -8.84747 34.1187 
0 15.047 -7.42947 34.1187 
0 10.1349 -7.42947 34.1187 
0 11.3629 -1.04847 34.1187 
0 17.503 -4.59347 30.7687 
0 13.8189 -8.13847 30.7687 
0 15.047 -0.339467 34.1187 
0 11.3629 -5.30247 34.1187 
0 17.503 -6.01147 30.7687 
0 10.1349 -0.339467 30.7687 
0 17.503 -1.75747 30.7687 
0 15.047 -6.01147 30.7687 
0 13.8189 -2.46647 30.7687 
0 12.5909 -4.59347 30.7687 
0 10.1349 -1.75747 30.7687 
0 13.8189 -6.72047 30.7687 
0 12.5909 -7.42947 34.1187 
0 13.8189 -6.72047 34.1187 
0 15.047 -4.59347 30.7687 
0 17.503 -4.59347 34.1187 
0 16.275 -6.72047 30.7687 
0 11.3629 -8.13847 30.7687 
0 16.275 -2.46647 34.1187 
0 17.503 -8.84747 34.1187 
0 13.8189 -3.88447 30.7687 
0 1.53871 0.369532 30.7687 
0 1.53871 1.78753 30.7687 
0 2.76673 2.49653 30.7687 
0 3.99475 0.369532 30.7687 
0 3.99475 1.78753 30.7687 
0 5.22278 2.49653 30.7687 
0 6.4508 0.369532 30.7687 
0 6.4508 1.78753 30.7687 
0 7.67883 2.49653 30.7687 
0 8.90685 0.369532 30.7687 
0 8.90685 1.78753 30.7687 
0 2.76673 3.91453 30.7687 
0 1.53871 4.62353 30.7687 
0 1.53871 6.04153 30.7687 
0 2.76673 6.75053 30.7687 
0 5.22278 3.91453 30.7687 
0 3.99475 4.62353 30.7687 
0 3.99475 6.04153 30.7687 
0 5.22278 6.75053 30.7687 
0 7.67883 3.91453 30.7687 
0 6.4508 4.62353 30.7687 
0 6.4508 6.04153 30.7687 
0 7.67883 6.75053 30.7687 
0 8.90685 4.62353 30.7687 
0 8.90685 6.04153 30.7687 
0 2.76673 8.16853 30.7687 
0 5.22278 8.16853 30.7687 
0 7.67883 8.16853 30.7687 
0 2.76673 1.07853 34.1187 
0 1.53871 1.78753 34.1187 
0 1.53871 3.20553 34.1187 
0 2.76673 3.91453 34.1187 
0 5.22278 1.07853 34.1187 
0 3.99475 1.78753 34.1187 
0 3.99475 3.20553 34.1187 
0 5.22278 3.91453 34.1187 
0 7.67883 1.07853 34.1187 
0 6.4508 1.78753 34.1187 
0 6.4508 3.20553 34.1187 
0 7.67883 3.91453 34.1187 
0 8.90685 1.78753 34.1187 
0 8.90685 3.20553 34.1187 
0 2.76673 5.33253 34.1187 
0 1.53871 6.04153 34.1187 
0 1.53871 7.45953 34.1187 
0 2.76673 8.16853 34.1187 
0 5.22278 5.33253 34.1187 
0 3.99475 6.04153 34.1187 
0 3.99475 7.45953 34.1187 
0 5.22278 8.16853 34.1187 
0 7.67883 5.33253 34.1187 
0 6.4508 6.04153 34.1187 
0 6.4508 7.45953 34.1187 
0 7.67883 8.16853 34.1187 
0 8.90685 6.04153 34.1187 
0 8.90685 7.45953 34.1187 
0 10.1349 2.49653 30.7687 
0 11.3629 0.369532 30.7687 
0 11.3629 1.78753 30.7687 
0 12.5909 2.49653 30.7687 
0 13.8189 0.369532 30.7687 
0 13.8189 1.78753 30.7687 
0 15.047 2.49653 30.7687 
0 16.275 0.369532 30.7687 
0 16.275 1.78753 30.7687 
0 17.503 2.49653 30.7687 
0 10.1349 3.91453 30.7687 
0 10.1349 6.75053 30.7687 
0 12.5909 3.91453 30.7687 
0 11.3629 4.62353 30.7687 
0 11.3629 6.04153 30.7687 
0 12.5909 6.75053 30.7687 
0 15.047 3.91453 30.7687 
0 13.8189 4.62353 30.7687 
0 13.8189 6.04153 30.7687 
0 15.047 6.75053 30.7687 
0 17.503 3.91453 30.7687 
0 16.275 4.62353 30.7687 
0 16.275 6.04153 30.7687 
0 17.503 6.75053 30.7687 
0 10.1349 8.16853 30.7687 
0 12.5909 8.16853 30.7687 
0 15.047 8.16853 30.7687 
0 17.503 8.16853 30.7687 
0 10.1349 1.07853 34.1187 
0 10.1349 3.91453 34.1187 
0 12.5909 1.07853 34.1187 
0 11.3629 1.78753 34.1187 
0 11.3629 3.20553 34.1187 
0 12.5909 3.91453 34.1187 
0 15.047 1.07853 34.1187 
0 13.8189 1.78753 34.1187 
0 13.8189 3.20553 34.1187 
0 15.047 3.91453 34.1187 
0 17.503 1.07853 34.1187 
0 16.275 1.78753 34.1187 
0 16.275 3.20553 34.1187 
0 17.503 3.91453 34.1187 
0 10.1349 5.33253 34.1187 
0 10.1349 8.16853 34.1187 
0 12.5909 5.33253 34.1187 
0 11.3629 6.04153 34.1187 
0 11.3629 7.45953 34.1187 
0 12.5909 8.16853 34.1187 
0 15.047 5.33253 34.1187 
0 13.8189 6.04153 34.1187 
0 13.8189 7.45953 34.1187 
0 15.047 8.16853 34.1187 
0 17.503 5.33253 34.1187 
0 16.275 6.04153 34.1187 
0 16.275 7.45953 34.1187 
0 17.503 8.16853 34.1187 
0 1.53871 8.87753 30.7687 
0 1.53871 10.2955 30.7687 
0 2.76673 11.0045 30.7687 
0 3.99475 8.87753 30.7687 
0 3.99475 10.2955 30.7687 
0 5.22278 11.0045 30.7687 
0 6.4508 8.87753 30.7687 
0 6.4508 10.2955 30.7687 
0 7.67883 11.0045 30.7687 
0 8.90685 8.87753 30.7687 
0 8.90685 10.2955 30.7687 
0 2.76673 12.4225 30.7687 
0 1.53871 13.1315 30.7687 
0 1.53871 14.5495 30.7687 
0 2.76673 15.2585 30.7687 
0 5.22278 12.4225 30.7687 
0 3.99475 13.1315 30.7687 
0 3.99475 14.5495 30.7687 
0 5.22278 15.2585 30.7687 
0 7.67883 12.4225 30.7687 
0 6.4508 13.1315 30.7687 
0 6.4508 14.5495 30.7687 
0 7.67883 15.2585 30.7687 
0 8.90685 13.1315 30.7687 
0 8.90685 14.5495 30.7687 
0 2.76673 9.58653 34.1187 
0 1.53871 10.2955 34.1187 
0 1.53871 11.7135 34.1187 
0 2.76673 12.4225 34.1187 
0 5.22278 9.58653 34.1187 
0 3.99475 10.2955 34.1187 
0 3.99475 11.7135 34.1187 
0 5.22278 12.4225 34.1187 
0 7.67883 9.58653 34.1187 
0 6.4508 10.2955 34.1187 
0 6.4508 11.7135 34.1187 
0 7.67883 12.4225 34.1187 
0 8.90685 10.2955 34.1187 
0 8.90685 11.7135 34.1187 
0 2.76673 13.8405 34.1187 
0 1.53871 14.5495 34.1187 
0 1.53871 15.9675 34.1187 
0 2.76673 16.6765 34.1187 
0 5.22278 13.8405 34.1187 
0 3.99475 14.5495 34.1187 
0 3.99475 15.9675 34.1187 
0 5.22278 16.6765 34.1187 
0 7.67883 13.8405 34.1187 
0 6.4508 14.5495 34.1187 
0 6.4508 15.9675 34.1187 
0 7.67883 16.6765 34.1187 
0 8.90685 14.5495 34.1187 
0 8.90685 15.9675 34.1187 
0 16.275 14.5495 30.7687 
0 17.503 11.0045 30.7687 
0 15.047 13.8405 34.1187 
0 15.047 11.0045 30.7687 
0 12.5909 9.58653 34.1187 
0 12.5909 12.4225 30.7687 
0 10.1349 9.58653 34.1187 
0 11.3629 14.5495 30.7687 
0 15.047 9.58653 34.1187 
0 11.3629 15.9675 34.1187 
0 13.8189 15.9675 34.1187 
0 10.1349 11.0045 30.7687 
0 16.275 13.1315 30.7687 
0 17.503 9.58653 34.1187 
0 10.1349 12.4225 34.1187 
0 12.5909 16.6765 34.1187 
0 12.5909 13.8405 34.1187 
0 11.3629 11.7135 34.1187 
0 11.3629 10.2955 34.1187 
0 16.275 10.2955 30.7687 
0 12.5909 11.0045 30.7687 
0 17.503 15.2585 30.7687 
0 11.3629 10.2955 30.7687 
0 16.275 15.9675 34.1187 
0 16.275 14.5495 34.1187 
0 13.8189 11.7135 34.1187 
0 17.503 12.4225 30.7687 
0 15.047 15.2585 30.7687 
0 13.8189 8.87753 30.7687 
0 13.8189 14.5495 30.7687 
0 17.503 16.6765 34.1187 
0 17.503 12.4225 34.1187 
0 12.5909 15.2585 30.7687 
0 10.1349 12.4225 30.7687 
0 11.3629 8.87753 30.7687 
0 15.047 12.4225 30.7687 
0 13.8189 10.2955 34.1187 
0 16.275 8.87753 30.7687 
0 13.8189 14.5495 34.1187 
0 10.1349 16.6765 34.1187 
0 16.275 11.7135 34.1187 
0 13.8189 10.2955 30.7687 
0 10.1349 15.2585 30.7687 
0 16.275 10.2955 34.1187 
0 15.047 12.4225 34.1187 
0 12.5909 12.4225 34.1187 
0 11.3629 14.5495 34.1187 
0 17.503 13.8405 34.1187 
0 13.8189 13.1315 30.7687 
0 11.3629 13.1315 30.7687 
0 15.047 16.6765 34.1187 
0 10.1349 13.8405 34.1187 
ITEM: TIMESTEP
2200000
ITEM: NUMBER OF ATOMS
896
ITEM: BOX BOUNDS pp pp ff
-1.7153631884999999e+01 1.8003017117999999e+01
-1.7855467918999999e+01 1.7553981017000002e+01
-3.4618715923000003e+01 3.4618715923000003e+01
ITEM: ATOMS q x y z 
-0.000229966 -7.05746 -4.59347 34.1187 
-0.000175923 -5.82944 -6.72047 34.1187 
-0.000299932 -7.05746 -0.339467 34.1187 
0.00428001 -7.05746 -4.59347 30.7687 
-7.12263e-05 -3.37339 -1.04847 34.1187 
-0.00509629 -2.14537 -6.01147 30.7687 
-1.57181e-05 -2.14537 -0.339467 34.1187 
-0.000225327 -8.28549 -2.46647 34.1187 
-0.0057672 -7.05746 -8.84747 30.7687 
6.77054e-05 -2.14537 -4.59347 34.1187 
0.0012582 -3.37339 -6.72047 30.7687 
-0.000121601 -4.60142 -3.17547 34.1187 
3.61886e-05 -0.917343 -2.46647 34.1187 
0.00404639 -14.4256 -17.3555 30.7687 
0.00822472 -15.6536 -16.6465 30.7687 
0.0167011 -15.6536 -15.2285 30.7687 
0.00437703 -14.4256 -14.5195 30.7687 
0.000710426 -11.9696 -17.3555 30.7687 
0.0026414 -13.1976 -16.6465 30.7687 
0.00170568 -13.1976 -15.2285 30.7687 
-4.56692e-05 -11.9696 -14.5195 30.7687 
-0.0148766 -9.51351 -17.3555 30.7687 
-0.00256126 -10.7415 -16.6465 30.7687 
-0.000984253 -10.7415 -15.2285 30.7687 
0.000516288 -9.51351 -14.5195 30.7687 
0.00418887 -14.4256 -13.1015 30.7687 
0.00690293 -15.6536 -12.3925 30.7687 
0.00315395 -15.6536 -10.9745 30.7687 
-0.000953794 -14.4256 -10.2655 30.7687 
-0.000134344 -11.9696 -13.1015 30.7687 
0.000600234 -13.1976 -12.3925 30.7687 
-0.000625373 -13.1976 -10.9745 30.7687 
-0.00490397 -11.9696 -10.2655 30.7687 
0.00480121 -9.51351 -13.1015 30.7687 
0.00275687 -10.7415 -12.3925 30.7687 
-0.0021231 -10.7415 -10.9745 30.7687 
-0.00447441 -9.51351 -10.2655 30.7687 
-0.000338087 -14.4256 -15.9375 34.1187 
-0.000363275 -15.6536 -15.2285 34.1187 
-0.000275161 -15.6536 -13.8105 34.1187 
-0.000192067 -14.4256 -13.1015 34.1187 
-0.000100164 -11.9696 -15.9375 34.1187 
-0.000172382 -13.1976 -15.2285 34.1187 
-0.000153635 -13.1976 -13.8105 34.1187 
-8.94381e-05 -11.9696 -13.1015 34.1187 
4.23428e-05 -9.51351 -15.9375 34.1187 
-3.18931e-05 -10.7415 -15.2285 34.1187 
-8.53847e-05 -10.7415 -13.8105 34.1187 
-0.000101817 -9.51351 -13.1015 34.1187 
-0.000115293 -14.4256 -11.6835 34.1187 
-0.000157915 -15.6536 -10.9745 34.1187 
-7.26083e-05 -15.6536 -9.55647 34.1187 
-3.67248e-05 -11.9696 -11.6835 34.1187 
-2.16674e-05 -13.1976 -10.9745 34.1187 
2.18004e-05 -13.1976 -9.55647 34.1187 
-2.86238e-05 -9.51351 -11.6835 34.1187 
2.24076e-05 -10.7415 -10.9745 34.1187 
4.02724e-05 -10.7415 -9.55647 34.1187 
-0.00218589 -7.05746 -17.3555 30.7687 
-0.00479642 -8.28549 -16.6465 30.7687 
0.000805408 -8.28549 -15.2285 30.7687 
0.00322986 -7.05746 -14.5195 30.7687 
0.00109385 -4.60142 -17.3555 30.7687 
0.00109902 -5.82944 -16.6465 30.7687 
0.00137839 -5.82944 -15.2285 30.7687 
0.000845641 -4.60142 -14.5195 30.7687 
-0.0319721 -2.14537 -17.3555 30.7687 
-0.00408165 -3.37339 -16.6465 30.7687 
0.00171186 -3.37339 -15.2285 30.7687 
0.00316971 -2.14537 -14.5195 30.7687 
0.00655439 0.31068 -17.3555 30.7687 
0.00545416 -0.917343 -16.6465 30.7687 
0.00722332 -0.917343 -15.2285 30.7687 
0.00523532 0.31068 -14.5195 30.7687 
0.0033363 -7.05746 -13.1015 30.7687 
0.00263407 -8.28549 -12.3925 30.7687 
-0.00248885 -8.28549 -10.9745 30.7687 
-0.00688352 -7.05746 -10.2655 30.7687 
0.000337372 -4.60142 -13.1015 30.7687 
0.00100215 -5.82944 -12.3925 30.7687 
-0.0013726 -5.82944 -10.9745 30.7687 
0.000808434 -4.60142 -10.2655 30.7687 
0.00218643 -2.14537 -13.1015 30.7687 
0.000249934 -3.37339 -12.3925 30.7687 
0.00239891 -3.37339 -10.9745 30.7687 
0.00302027 -2.14537 -10.2655 30.7687 
0.00218415 0.31068 -13.1015 30.7687 
0.00137448 -0.917343 -12.3925 30.7687 
0.000389555 -0.917343 -10.9745 30.7687 
0.00291342 0.31068 -10.2655 30.7687 
-4.57307e-05 -7.05746 -15.9375 34.1187 
-4.07672e-05 -8.28549 -15.2285 34.1187 
-0.0001071 -8.28549 -13.8105 34.1187 
-0.000112579 -7.05746 -13.1015 34.1187 
-4.09244e-05 -4.60142 -15.9375 34.1187 
-9.07085e-05 -5.82944 -15.2285 34.1187 
-0.000100899 -5.82944 -13.8105 34.1187 
-9.24739e-05 -4.60142 -13.1015 34.1187 
-6.66828e-07 -2.14537 -15.9375 34.1187 
-4.19129e-05 -3.37339 -15.2285 34.1187 
-0.000112422 -3.37339 -13.8105 34.1187 
-0.00013733 -2.14537 -13.1015 34.1187 
-0.000251982 0.31068 -15.9375 34.1187 
-0.00016738 -0.917343 -15.2285 34.1187 
-0.00017561 -0.917343 -13.8105 34.1187 
-0.000158547 0.31068 -13.1015 34.1187 
-3.11932e-05 -7.05746 -11.6835 34.1187 
3.28075e-05 -8.28549 -10.9745 34.1187 
6.64523e-05 -8.28549 -9.55647 34.1187 
-8.81702e-05 -4.60142 -11.6835 34.1187 
-2.18232e-05 -5.82944 -10.9745 34.1187 
-2.38146e-05 -5.82944 -9.55647 34.1187 
-0.000119698 -2.14537 -11.6835 34.1187 
-9.93662e-05 -3.37339 -10.9745 34.1187 
-8.15803e-05 -3.37339 -9.55647 34.1187 