ITEM: TIMESTEP
2000000
ITEM: NUMBER OF ATOMS
9442
ITEM: BOX BOUNDS pp pp ff
-1.7153631884999999e+01 1.8003017117999999e+01
-1.7855467918999999e+01 1.7553981017000002e+01
-3.4618715923000003e+01 3.4618715923000003e+01
ITEM: ATOMS id mol type x y z q 
7651 3001 5 -15.4256 -16.978 -34.1187 0 
7652 3001 5 -16.6536 -16.269 -34.1187 0 
7653 3001 5 -16.6536 -14.851 -34.1187 0 
7654 3001 5 -15.4256 -14.142 -34.1187 0 
7655 3001 5 -12.9696 -16.978 -34.1187 0 
7656 3001 5 -14.1976 -16.269 -34.1187 0 
7657 3001 5 -14.1976 -14.851 -34.1187 0 
7658 3001 5 -12.9696 -14.142 -34.1187 0 
7659 3001 5 -10.5135 -16.978 -34.1187 0 
7660 3001 5 -11.7415 -16.269 -34.1187 0 
7661 3001 5 -11.7415 -14.851 -34.1187 0 
7662 3001 5 -10.5135 -14.142 -34.1187 0 
7664 3001 5 -9.28549 -16.269 -34.1187 0 
7665 3001 5 -9.28549 -14.851 -34.1187 0 
7707 3001 5 -15.4256 -12.724 -34.1187 0 
7708 3001 5 -16.6536 -12.015 -34.1187 0 
7709 3001 5 -16.6536 -10.597 -34.1187 0 
7710 3001 5 -15.4256 -9.88802 -34.1187 0 
7711 3001 5 -12.9696 -12.724 -34.1187 0 
7712 3001 5 -14.1976 -12.015 -34.1187 0 
7713 3001 5 -14.1976 -10.597 -34.1187 0 
7714 3001 5 -12.9696 -9.88802 -34.1187 0 
7715 3001 5 -10.5135 -12.724 -34.1187 0 
7716 3001 5 -11.7415 -12.015 -34.1187 0 
7717 3001 5 -11.7415 -10.597 -34.1187 0 
7718 3001 5 -10.5135 -9.88802 -34.1187 0 
7720 3001 5 -9.28549 -12.015 -34.1187 0 
7721 3001 5 -9.28549 -10.597 -34.1187 0 
8099 3001 5 -15.4256 -15.56 -30.7687 0 
8100 3001 5 -16.6536 -14.851 -30.7687 0 
8101 3001 5 -16.6536 -13.433 -30.7687 0 
8102 3001 5 -15.4256 -12.724 -30.7687 0 
8103 3001 5 -12.9696 -15.56 -30.7687 0 
8104 3001 5 -14.1976 -14.851 -30.7687 0 
8105 3001 5 -14.1976 -13.433 -30.7687 0 
8106 3001 5 -12.9696 -12.724 -30.7687 0 
8107 3001 5 -10.5135 -15.56 -30.7687 0 
8108 3001 5 -11.7415 -14.851 -30.7687 0 
8109 3001 5 -11.7415 -13.433 -30.7687 0 
8110 3001 5 -10.5135 -12.724 -30.7687 0 
8112 3001 5 -9.28549 -14.851 -30.7687 0 
8113 3001 5 -9.28549 -13.433 -30.7687 0 
8155 3001 5 -15.4256 -11.306 -30.7687 0 
8156 3001 5 -16.6536 -10.597 -30.7687 0 
8157 3001 5 -16.6536 -9.17902 -30.7687 0 
8159 3001 5 -12.9696 -11.306 -30.7687 0 
8160 3001 5 -14.1976 -10.597 -30.7687 0 
8161 3001 5 -14.1976 -9.17902 -30.7687 0 
8163 3001 5 -10.5135 -11.306 -30.7687 0 
8164 3001 5 -11.7415 -10.597 -30.7687 0 
8165 3001 5 -11.7415 -9.17902 -30.7687 0 
8168 3001 5 -9.28549 -10.597 -30.7687 0 
8169 3001 5 -9.28549 -9.17902 -30.7687 0 
2618 903 3 -13.5604 -11.785 -27.6036 -0.8476 
2619 903 2 -14.5327 -11.9775 -27.7362 0.4238 
1977 689 2 -16.6351 -13.266 -26.862 0.4238 
1976 689 3 -16.4282 -14.0817 -26.3218 -0.8476 
6358 2150 2 -12.0414 -10.5526 -27.3625 0.4238 
2617 903 2 -13.6108 -11.3722 -26.6942 0.4238 
62 51 3 -16.7175 -11.6157 -27.4887 -0.8476 
3624 1238 2 -12.3488 -12.8579 -27.8283 0.4238 
6359 2150 3 -11.4573 -9.74587 -27.2722 -0.8476 
3623 1238 3 -11.6044 -13.51 -27.6849 -0.8476 
6360 2150 2 -11.7892 -9.25053 -26.4694 0.4238 
2433 841 2 -9.75598 -13.5575 -27.8412 0.4238 
4333 1475 2 -15.578 -15.5938 -26.7643 0.4238 
4334 1475 3 -15.4709 -16.5675 -26.5633 -0.8476 
4335 1475 2 -14.6769 -16.8824 -27.0832 0.4238 
2431 841 2 -8.97436 -14.213 -26.7163 0.4238 
2432 841 3 -8.80879 -13.6752 -27.543 -0.8476 
5218 1770 2 -9.7616 -10.4687 -27.3897 0.4238 
3186 1092 2 -12.631 -16.5586 -28.1012 0.4238 
3184 1092 2 -12.1715 -17.3044 -26.7079 0.4238 
3185 1092 3 -12.9099 -17.1824 -27.3711 -0.8476 
5219 1770 3 -8.81699 -10.7614 -27.2412 -0.8476 
63 51 2 -16.7575 -10.6226 -27.3781 0.4238 
6353 2148 3 -16.3229 -9.12674 -27.1876 -0.8476 
5220 1770 2 -8.87256 -11.7209 -27.5171 0.4238 
3622 1238 2 -11.7318 -13.7218 -26.7159 0.4238 
3511 1201 2 -17.0932 -17.1539 -26.8064 0.4238 
6841 2311 2 -7.04766 -13.3542 -27.6473 0.4238 
3437 1176 3 -3.84915 -11.6956 -27.1185 -0.8476 
6842 2311 3 -6.09523 -13.0544 -27.5925 -0.8476 
7663 3001 5 -8.05746 -16.978 -34.1187 0 
7666 3001 5 -8.05746 -14.142 -34.1187 0 
7667 3001 5 -5.60142 -16.978 -34.1187 0 
7668 3001 5 -6.82944 -16.269 -34.1187 0 
7669 3001 5 -6.82944 -14.851 -34.1187 0 
7670 3001 5 -5.60142 -14.142 -34.1187 0 
7671 3001 5 -3.14537 -16.978 -34.1187 0 
7672 3001 5 -4.37339 -16.269 -34.1187 0 
7673 3001 5 -4.37339 -14.851 -34.1187 0 
7674 3001 5 -3.14537 -14.142 -34.1187 0 
7675 3001 5 -0.68932 -16.978 -34.1187 0 
7676 3001 5 -1.91734 -16.269 -34.1187 0 
7677 3001 5 -1.91734 -14.851 -34.1187 0 
7678 3001 5 -0.68932 -14.142 -34.1187 0 
7719 3001 5 -8.05746 -12.724 -34.1187 0 
7722 3001 5 -8.05746 -9.88802 -34.1187 0 
7723 3001 5 -5.60142 -12.724 -34.1187 0 
7724 3001 5 -6.82944 -12.015 -34.1187 0 
7725 3001 5 -6.82944 -10.597 -34.1187 0 
7726 3001 5 -5.60142 -9.88802 -34.1187 0 
7727 3001 5 -3.14537 -12.724 -34.1187 0 
7728 3001 5 -4.37339 -12.015 -34.1187 0 
7729 3001 5 -4.37339 -10.597 -34.1187 0 
7730 3001 5 -3.14537 -9.88802 -34.1187 0 
7731 3001 5 -0.68932 -12.724 -34.1187 0 
7732 3001 5 -1.91734 -12.015 -34.1187 0 
7733 3001 5 -1.91734 -10.597 -34.1187 0 
7734 3001 5 -0.68932 -9.88802 -34.1187 0 
8111 3001 5 -8.05746 -15.56 -30.7687 0 
8114 3001 5 -8.05746 -12.724 -30.7687 0 
8115 3001 5 -5.60142 -15.56 -30.7687 0 
8116 3001 5 -6.82944 -14.851 -30.7687 0 
8117 3001 5 -6.82944 -13.433 -30.7687 0 
8118 3001 5 -5.60142 -12.724 -30.7687 0 
8119 3001 5 -3.14537 -15.56 -30.7687 0 
8120 3001 5 -4.37339 -14.851 -30.7687 0 
8121 3001 5 -4.37339 -13.433 -30.7687 0 
8122 3001 5 -3.14537 -12.724 -30.7687 0 
8123 3001 5 -0.68932 -15.56 -30.7687 0 
8124 3001 5 -1.91734 -14.851 -30.7687 0 
8125 3001 5 -1.91734 -13.433 -30.7687 0 
8126 3001 5 -0.68932 -12.724 -30.7687 0 
8167 3001 5 -8.05746 -11.306 -30.7687 0 
8171 3001 5 -5.60142 -11.306 -30.7687 0 
8172 3001 5 -6.82944 -10.597 -30.7687 0 
8173 3001 5 -6.82944 -9.17902 -30.7687 0 
8175 3001 5 -3.14537 -11.306 -30.7687 0 
8176 3001 5 -4.37339 -10.597 -30.7687 0 
8177 3001 5 -4.37339 -9.17902 -30.7687 0 
8179 3001 5 -0.68932 -11.306 -30.7687 0 
8180 3001 5 -1.91734 -10.597 -30.7687 0 
8181 3001 5 -1.91734 -9.17902 -30.7687 0 
6843 2311 2 -5.52571 -13.7915 -27.9564 0.4238 
7351 2481 2 -1.11187 -11.0942 -27.7363 0.4238 
6221 2104 3 -4.48152 -15.6659 -27.9521 -0.8476 
6222 2104 2 -4.86622 -16.5086 -28.3288 0.4238 
6220 2104 2 -4.95753 -15.6258 -27.0735 0.4238 
3438 1176 2 -3.9764 -10.8265 -27.5965 0.4238 
1310 467 3 -1.87009 -15.4322 -27.3511 -0.8476 
1309 467 2 -1.77884 -15.6719 -26.3846 0.4238 
3436 1176 2 -4.7269 -12.1346 -27.3105 0.4238 
1311 467 2 -2.81118 -15.626 -27.6282 0.4238 
6348 2146 2 -1.69745 -13.7373 -27.2624 0.4238 
7353 2481 2 -1.8964 -9.85044 -27.7758 0.4238 
6347 2146 3 -1.50937 -12.7567 -27.3177 -0.8476 
4606 1566 2 -7.17423 -9.94762 -26.9766 0.4238 
6346 2146 2 -2.4228 -12.3499 -27.332 0.4238 
4607 1566 3 -6.21731 -9.66162 -27.0267 -0.8476 
3507 1199 2 -6.41402 -12.4326 -26.1449 0.4238 
4608 1566 2 -5.87263 -10.0261 -26.1616 0.4238 
2379 823 2 -6.55087 -17.0511 -26.545 0.4238 
7352 2481 3 -0.931039 -10.1112 -27.7679 -0.8476 
4609 1567 2 -0.534687 -10.0598 -26.0295 0.4238 
2378 823 3 -6.49603 -17.6749 -27.3246 -0.8476 
5431 1841 2 -0.912777 -17.4472 -27.9885 0.4238 
3482 1191 3 -17.0943 -5.70287 -27.5824 -0.8476 
6811 2301 2 -13.4251 -7.96611 -26.6511 0.4238 
6813 2301 2 -13.1461 -8.10647 -28.2359 0.4238 
7763 3001 5 -15.4256 -8.47002 -34.1187 0 
7764 3001 5 -16.6536 -7.76102 -34.1187 0 
7765 3001 5 -16.6536 -6.34302 -34.1187 0 
7766 3001 5 -15.4256 -5.63402 -34.1187 0 
7767 3001 5 -12.9696 -8.47002 -34.1187 0 
7768 3001 5 -14.1976 -7.76102 -34.1187 0 
7769 3001 5 -14.1976 -6.34302 -34.1187 0 
7770 3001 5 -12.9696 -5.63402 -34.1187 0 
7771 3001 5 -10.5135 -8.47002 -34.1187 0 
7772 3001 5 -11.7415 -7.76102 -34.1187 0 
7773 3001 5 -11.7415 -6.34302 -34.1187 0 
7774 3001 5 -10.5135 -5.63402 -34.1187 0 
7776 3001 5 -9.28549 -7.76102 -34.1187 0 
7777 3001 5 -9.28549 -6.34302 -34.1187 0 
7819 3001 5 -15.4256 -4.21602 -34.1187 0 
7820 3001 5 -16.6536 -3.50702 -34.1187 0 
7821 3001 5 -16.6536 -2.08902 -34.1187 0 
7822 3001 5 -15.4256 -1.38002 -34.1187 0 
7823 3001 5 -12.9696 -4.21602 -34.1187 0 
7824 3001 5 -14.1976 -3.50702 -34.1187 0 
7825 3001 5 -14.1976 -2.08902 -34.1187 0 
7826 3001 5 -12.9696 -1.38002 -34.1187 0 
7827 3001 5 -10.5135 -4.21602 -34.1187 0 
7828 3001 5 -11.7415 -3.50702 -34.1187 0 
7829 3001 5 -11.7415 -2.08902 -34.1187 0 
7830 3001 5 -10.5135 -1.38002 -34.1187 0 
7832 3001 5 -9.28549 -3.50702 -34.1187 0 
7833 3001 5 -9.28549 -2.08902 -34.1187 0 
8158 3001 5 -15.4256 -8.47002 -30.7687 0 
8162 3001 5 -12.9696 -8.47002 -30.7687 0 
8166 3001 5 -10.5135 -8.47002 -30.7687 0 
8211 3001 5 -15.4256 -7.05202 -30.7687 0 
8212 3001 5 -16.6536 -6.34302 -30.7687 0 
8213 3001 5 -16.6536 -4.92502 -30.7687 0 
8214 3001 5 -15.4256 -4.21602 -30.7687 0 
8215 3001 5 -12.9696 -7.05202 -30.7687 0 
8216 3001 5 -14.1976 -6.34302 -30.7687 0 
8217 3001 5 -14.1976 -4.92502 -30.7687 0 
8218 3001 5 -12.9696 -4.21602 -30.7687 0 
8219 3001 5 -10.5135 -7.05202 -30.7687 0 
8220 3001 5 -11.7415 -6.34302 -30.7687 0 
8221 3001 5 -11.7415 -4.92502 -30.7687 0 
8222 3001 5 -10.5135 -4.21602 -30.7687 0 
8224 3001 5 -9.28549 -6.34302 -30.7687 0 
8225 3001 5 -9.28549 -4.92502 -30.7687 0 
8267 3001 5 -15.4256 -2.79802 -30.7687 0 
8268 3001 5 -16.6536 -2.08902 -30.7687 0 
8269 3001 5 -16.6536 -0.671021 -30.7687 0 
8271 3001 5 -12.9696 -2.79802 -30.7687 0 
8272 3001 5 -14.1976 -2.08902 -30.7687 0 
8273 3001 5 -14.1976 -0.671021 -30.7687 0 
8275 3001 5 -10.5135 -2.79802 -30.7687 0 
8276 3001 5 -11.7415 -2.08902 -30.7687 0 
8277 3001 5 -11.7415 -0.671021 -30.7687 0 
8280 3001 5 -9.28549 -2.08902 -30.7687 0 
8281 3001 5 -9.28549 -0.671021 -30.7687 0 
6389 2160 3 -16.2179 -3.05161 -26.6417 -0.8476 
3367 1153 2 -11.1576 -2.17136 -27.6964 0.4238 
6390 2160 2 -15.3885 -3.4645 -26.2656 0.4238 
1474 522 2 -12.9188 -4.07383 -27.8566 0.4238 
3368 1153 3 -10.4011 -1.56436 -27.9398 -0.8476 
6439 2177 2 -14.1596 -6.2852 -27.3654 0.4238 
6812 2301 3 -13.8066 -7.78466 -27.5575 -0.8476 
6440 2177 3 -14.3771 -5.32156 -27.2101 -0.8476 
1475 522 3 -12.1589 -3.57884 -27.4353 -0.8476 
6800 2297 3 -9.40838 -7.43961 -27.478 -0.8476 
6801 2297 2 -9.59508 -8.14592 -28.1609 0.4238 
5380 1824 2 -8.84896 -1.14857 -27.0978 0.4238 
4209 1433 2 -10.1855 -4.12736 -27.2358 0.4238 
6352 2148 2 -16.539 -8.43841 -26.4951 0.4238 
6354 2148 2 -15.4763 -8.85474 -27.645 0.4238 
6441 2177 2 -15.3577 -5.35349 -27.4035 0.4238 
4208 1433 3 -9.39246 -4.38101 -26.6819 -0.8476 
6799 2297 2 -8.44919 -7.21341 -27.6477 0.4238 
1476 522 2 -12.4304 -3.59016 -26.4729 0.4238 
4207 1433 2 -9.34937 -5.38005 -26.675 0.4238 
6388 2160 2 -16.718 -3.89072 -26.8558 0.4238 
3369 1153 2 -10.8085 -0.653056 -27.9993 0.4238 
6746 2279 3 -3.5825 -8.83155 -27.4175 -0.8476 
6745 2279 2 -4.52399 -8.85925 -27.7534 0.4238 
6747 2279 2 -3.28348 -7.88266 -27.5185 0.4238 
7775 3001 5 -8.05746 -8.47002 -34.1187 0 
7778 3001 5 -8.05746 -5.63402 -34.1187 0 
7779 3001 5 -5.60142 -8.47002 -34.1187 0 
7780 3001 5 -6.82944 -7.76102 -34.1187 0 
7781 3001 5 -6.82944 -6.34302 -34.1187 0 
7782 3001 5 -5.60142 -5.63402 -34.1187 0 
7783 3001 5 -3.14537 -8.47002 -34.1187 0 
7784 3001 5 -4.37339 -7.76102 -34.1187 0 
7785 3001 5 -4.37339 -6.34302 -34.1187 0 
7786 3001 5 -3.14537 -5.63402 -34.1187 0 
7787 3001 5 -0.68932 -8.47002 -34.1187 0 
7788 3001 5 -1.91734 -7.76102 -34.1187 0 
7789 3001 5 -1.91734 -6.34302 -34.1187 0 
7790 3001 5 -0.68932 -5.63402 -34.1187 0 
7831 3001 5 -8.05746 -4.21602 -34.1187 0 
7834 3001 5 -8.05746 -1.38002 -34.1187 0 
7835 3001 5 -5.60142 -4.21602 -34.1187 0 
7836 3001 5 -6.82944 -3.50702 -34.1187 0 
7837 3001 5 -6.82944 -2.08902 -34.1187 0 
7838 3001 5 -5.60142 -1.38002 -34.1187 0 
7839 3001 5 -3.14537 -4.21602 -34.1187 0 
7840 3001 5 -4.37339 -3.50702 -34.1187 0 
7841 3001 5 -4.37339 -2.08902 -34.1187 0 
7842 3001 5 -3.14537 -1.38002 -34.1187 0 
7843 3001 5 -0.68932 -4.21602 -34.1187 0 
7844 3001 5 -1.91734 -3.50702 -34.1187 0 
7845 3001 5 -1.91734 -2.08902 -34.1187 0 
7846 3001 5 -0.68932 -1.38002 -34.1187 0 
8170 3001 5 -8.05746 -8.47002 -30.7687 0 
8174 3001 5 -5.60142 -8.47002 -30.7687 0 
8178 3001 5 -3.14537 -8.47002 -30.7687 0 
8182 3001 5 -0.68932 -8.47002 -30.7687 0 
8223 3001 5 -8.05746 -7.05202 -30.7687 0 
8226 3001 5 -8.05746 -4.21602 -30.7687 0 
8227 3001 5 -5.60142 -7.05202 -30.7687 0 
8228 3001 5 -6.82944 -6.34302 -30.7687 0 
8229 3001 5 -6.82944 -4.92502 -30.7687 0 
8230 3001 5 -5.60142 -4.21602 -30.7687 0 
8231 3001 5 -3.14537 -7.05202 -30.7687 0 
8232 3001 5 -4.37339 -6.34302 -30.7687 0 
8233 3001 5 -4.37339 -4.92502 -30.7687 0 
8234 3001 5 -3.14537 -4.21602 -30.7687 0 
8235 3001 5 -0.68932 -7.05202 -30.7687 0 
8236 3001 5 -1.91734 -6.34302 -30.7687 0 
8237 3001 5 -1.91734 -4.92502 -30.7687 0 
8238 3001 5 -0.68932 -4.21602 -30.7687 0 
8279 3001 5 -8.05746 -2.79802 -30.7687 0 
8283 3001 5 -5.60142 -2.79802 -30.7687 0 
8284 3001 5 -6.82944 -2.08902 -30.7687 0 
8285 3001 5 -6.82944 -0.671021 -30.7687 0 
8287 3001 5 -3.14537 -2.79802 -30.7687 0 
8288 3001 5 -4.37339 -2.08902 -30.7687 0 
8289 3001 5 -4.37339 -0.671021 -30.7687 0 
8291 3001 5 -0.68932 -2.79802 -30.7687 0 
8292 3001 5 -1.91734 -2.08902 -30.7687 0 
8293 3001 5 -1.91734 -0.671021 -30.7687 0 
6574 2222 2 -6.38422 -7.81998 -27.4585 0.4238 
6576 2222 2 -6.1406 -6.25072 -27.555 0.4238 
720 270 2 -7.14976 -3.85091 -28.7048 0.4238 
718 270 2 -8.11082 -3.83371 -27.4766 0.4238 
719 270 3 -7.21652 -3.49739 -27.7718 -0.8476 
2353 815 2 -4.23418 -1.47558 -27.8183 0.4238 
6575 2222 3 -6.85795 -6.94714 -27.5756 -0.8476 
2354 815 3 -3.94385 -2.39533 -27.5542 -0.8476 
5382 1824 2 -7.39798 -1.73851 -26.9861 0.4238 
5381 1824 3 -7.91517 -0.894155 -26.8461 -0.8476 
2355 815 2 -4.30657 -2.3752 -26.6225 0.4238 
1694 595 3 -4.7329 -5.34151 -27.5485 -0.8476 
1695 595 2 -3.76333 -5.58201 -27.5025 0.4238 
1693 595 2 -4.80861 -4.39585 -27.8647 0.4238 
6729 2273 2 -2.3818 -3.12767 -27.5737 0.4238 
6728 2273 3 -1.43384 -3.44599 -27.5668 -0.8476 
6727 2273 2 -0.964464 -2.57209 -27.4403 0.4238 
7063 2385 2 -1.83816 -5.27245 -27.5441 0.4238 
7064 2385 3 -2.16776 -6.18993 -27.3214 -0.8476 
7065 2385 2 -1.35309 -6.46633 -26.8116 0.4238 
290 127 3 -0.780388 -1.10156 -26.4341 -0.8476 
3949 1347 2 -6.62755 -4.24151 -25.9974 0.4238 
4684 1592 2 0.244165 -4.72234 -26.9692 0.4238 
289 127 2 -1.04504 -0.182876 -26.7273 0.4238 
299 130 3 -10.697 -17.5915 -25.5126 -0.8476 
1317 469 2 -8.77957 -16.8923 -23.0756 0.4238 
1975 689 2 -16.043 -13.7456 -25.4624 0.4238 
300 130 2 -10.1386 -16.7753 -25.3646 0.4238 
7255 2449 2 -16.9885 -17.6753 -23.2257 0.4238 
6735 2275 2 -12.6813 -11.3238 -24.4609 0.4238 
3914 1335 3 -14.7577 -13.0719 -22.3264 -0.8476 
3915 1335 2 -14.8847 -12.8048 -21.3711 0.4238 
3913 1335 2 -13.8699 -12.6422 -22.4913 0.4238 
6904 2332 2 -15.2457 -12.6634 -23.6972 0.4238 
6140 2077 3 -14.5328 -15.5871 -23.4008 -0.8476 
6905 2332 3 -15.5228 -12.3769 -24.6143 -0.8476 
3848 1313 3 -14.0108 -9.70912 -17.5804 -0.8476 
6733 2275 2 -13.3834 -9.99562 -25.0293 0.4238 
6734 2275 3 -13.3662 -10.9922 -25.1098 -0.8476 
4195 1429 2 -11.8254 -10.8671 -22.5381 0.4238 
6906 2332 2 -14.684 -11.9284 -24.923 0.4238 
115 69 2 -15.2703 -12.0576 -18.7715 0.4238 
117 69 2 -14.7224 -13.4662 -19.1314 0.4238 
116 69 3 -14.6933 -12.5175 -19.4464 -0.8476 
4406 1499 3 -10.1649 -13.1144 -21.8895 -0.8476 
3849 1313 2 -13.433 -9.60662 -18.3901 0.4238 
4407 1499 2 -10.1672 -12.5293 -21.0785 0.4238 
4146 1412 2 -9.48855 -10.1909 -20.8165 0.4238 
6139 2077 2 -14.6973 -14.8559 -22.7387 0.4238 
4145 1412 3 -9.39376 -10.8359 -20.0582 -0.8476 
4196 1429 3 -12.2343 -11.7577 -22.7367 -0.8476 
4197 1429 2 -11.5202 -12.4145 -22.4944 0.4238 
6681 2257 2 -13.0702 -14.5729 -25.1413 0.4238 
6679 2257 2 -11.9721 -15.5798 -24.8242 0.4238 
6680 2257 3 -12.0973 -14.7203 -25.3198 -0.8476 
4405 1499 2 -9.28051 -13.2881 -22.3227 0.4238 
6097 2063 2 -14.3417 -15.7975 -18.6479 0.4238 
6098 2063 3 -15.0858 -15.1741 -18.4077 -0.8476 
3457 1183 2 -10.4391 -14.7738 -25.2584 0.4238 
3459 1183 2 -9.01431 -14.5282 -24.4852 0.4238 
3458 1183 3 -9.46085 -14.9813 -25.2568 -0.8476 
3711 1267 2 -15.3294 -16.9862 -23.8848 0.4238 
3090 1060 2 -11.0158 -10.8036 -19.0236 0.4238 
6251 2114 3 -16.1127 -11.1282 -17.6513 -0.8476 
3082 1058 2 -9.7989 -15.0218 -22.0716 0.4238 
6250 2114 2 -15.2645 -10.6005 -17.6034 0.4238 
3083 1058 3 -9.78282 -16.0216 -22.0718 -0.8476 
3088 1060 2 -11.0941 -9.53602 -18.1905 0.4238 
3089 1060 3 -11.4881 -10.4548 -18.2141 -0.8476 
5026 1706 2 -9.63557 -13.9492 -17.6872 0.4238 
5027 1706 3 -8.94092 -14.4841 -18.1682 -0.8476 
5028 1706 2 -9.43338 -14.9705 -18.8899 0.4238 
2939 1010 3 -13.556 -17.1487 -19.1543 -0.8476 
5314 1802 2 -15.6857 -17.2855 -21.7153 0.4238 
3084 1058 2 -9.26003 -16.3595 -21.2891 0.4238 
2940 1010 2 -14.1429 -17.2919 -19.9512 0.4238 
6141 2077 2 -13.6193 -15.9623 -23.2431 0.4238 
918 336 2 -11.5681 -16.5901 -22.4676 0.4238 
917 336 3 -12.1225 -16.7644 -23.2815 -0.8476 
4144 1412 2 -8.52552 -10.5206 -19.6751 0.4238 
6789 2293 2 -8.9774 -10.3553 -24.9984 0.4238 
6252 2114 2 -16.7825 -10.3857 -17.6503 0.4238 
1177 423 2 -8.96219 -9.20197 -22.9843 0.4238 
6099 2063 2 -15.8223 -15.8061 -18.6488 0.4238 
153 81 2 -9.05785 -9.13119 -17.5203 0.4238 
6361 2151 2 -17.0132 -12.3199 -23.6445 0.4238 
5150 1747 3 -16.8748 -10.0276 -21.8674 -0.8476 
5151 1747 2 -16.629 -9.59482 -21.0001 0.4238 
916 336 2 -12.514 -17.6594 -23.0681 0.4238 
5149 1747 2 -16.0831 -9.78007 -22.4259 0.4238 
2938 1010 2 -12.7931 -17.6531 -19.5588 0.4238 
3709 1267 2 -15.4048 -17.5572 -25.1756 0.4238 
298 130 2 -11.0933 -17.8344 -24.6271 0.4238 
775 289 2 -3.81376 -12.1696 -25.317 0.4238 
1076 389 3 0.414941 -10.7547 -18.7612 -0.8476 
395 162 3 -2.02627 -15.6157 -24.4204 -0.8476 
6482 2191 3 -8.27478 -16.9387 -20.0513 -0.8476 
147 79 2 -6.67554 -15.1032 -25.2714 0.4238 
6377 2156 3 -5.59543 -16.803 -23.2531 -0.8476 
6483 2191 2 -7.48996 -16.3833 -19.7764 0.4238 
6198 2096 2 -2.85798 -10.941 -18.0602 0.4238 
2062 718 2 -2.46606 -14.3388 -23.3903 0.4238 
777 289 2 -3.53556 -12.6223 -23.7813 0.4238 
5261 1784 3 -4.08592 -14.8041 -18.8323 -0.8476 
6788 2293 3 -8.32394 -9.88659 -24.404 -0.8476 
6787 2293 2 -7.56664 -10.5361 -24.4718 0.4238 
5679 1923 2 -7.51013 -12.7508 -24.0229 0.4238 
2518 870 2 -6.20324 -9.19852 -20.5656 0.4238 
5307 1799 2 -2.54373 -16.7506 -20.8917 0.4238 
7615 2575 4 -6.58204 -10.3586 -18.9219 -1 
3506 1199 3 -6.67799 -12.0925 -25.2423 -0.8476 
3505 1199 2 -5.80929 -12.151 -24.7504 0.4238 
776 289 3 -4.13163 -12.0797 -24.3731 -0.8476 
5748 1946 2 -6.39853 -12.1105 -19.9477 0.4238 
5678 1923 3 -7.86273 -13.5157 -23.4838 -0.8476 
5306 1799 3 -2.50477 -15.755 -20.8071 -0.8476 
5305 1799 2 -3.27314 -15.5617 -20.197 0.4238 
5677 1923 2 -7.21627 -13.8979 -22.8235 0.4238 
5260 1784 2 -5.05341 -14.9961 -18.6676 0.4238 
5641 1911 2 -6.539 -9.33488 -17.4742 0.4238 
5747 1946 3 -6.72507 -13.0337 -20.1501 -0.8476 
5262 1784 2 -3.94707 -13.815 -18.7836 0.4238 
5746 1946 2 -7.54796 -13.0771 -19.5835 0.4238 
4929 1673 2 -4.8701 -11.447 -18.8344 0.4238 
2063 718 3 -2.68682 -13.7501 -22.6127 -0.8476 
4928 1673 3 -4.15689 -12.1087 -18.603 -0.8476 
1762 618 2 -1.99378 -11.2126 -22.5662 0.4238 
2791 961 2 -5.81035 -9.6186 -23.1138 0.4238 
146 79 3 -5.82642 -15.4955 -25.625 -0.8476 
6663 2251 2 -2.46923 -14.6555 -17.3787 0.4238 
1763 618 3 -2.03688 -10.2252 -22.7188 -0.8476 
1764 618 2 -1.58674 -10.1038 -23.6035 0.4238 
145 79 2 -5.50039 -15.9978 -24.8241 0.4238 
2793 961 2 -4.8997 -10.5957 -23.9628 0.4238 
2647 913 2 -5.91323 -13.9994 -21.2765 0.4238 
6197 2096 3 -2.34774 -10.1051 -17.8581 -0.8476 
6196 2096 2 -1.43899 -10.2614 -18.2451 0.4238 
2064 718 2 -2.70142 -14.4505 -21.8991 0.4238 
3799 1297 2 -2.86081 -9.02537 -21.7847 0.4238 
6639 2243 2 -1.17215 -9.22851 -21.4995 0.4238 
6094 2062 2 -0.931994 -14.686 -21.7179 0.4238 
4927 1673 2 -4.35611 -12.1353 -17.6234 0.4238 
2681 924 3 -6.56131 -15.6429 -18.287 -0.8476 
2648 913 3 -5.6457 -14.3586 -22.1705 -0.8476 
2649 913 2 -4.87747 -13.7909 -22.4664 0.4238 
6378 2156 2 -5.60534 -15.8926 -22.8394 0.4238 
2680 924 2 -6.62952 -16.4108 -17.6501 0.4238 
2325 805 2 -0.793741 -17.6059 -21.9153 0.4238 
6564 2218 2 -3.67369 -16.6583 -18.4709 0.4238 
4610 1567 3 -0.243803 -10.2219 -25.0866 -0.8476 
2324 805 3 -0.394608 -17.1095 -22.6862 -0.8476 
396 162 2 -1.30859 -16.2198 -24.0739 0.4238 
6376 2156 2 -6.5656 -17.002 -23.3915 0.4238 
2792 961 3 -5.49548 -9.79692 -24.046 -0.8476 
2682 924 2 -7.35623 -15.0893 -18.0386 0.4238 
6563 2218 3 -3.79494 -17.6464 -18.5653 -0.8476 
1316 469 3 -8.19594 -17.3774 -23.7268 -0.8476 
394 162 2 -2.84589 -16.1707 -24.5626 0.4238 
1075 389 2 0.200362 -10.3922 -19.6682 0.4238 
6096 2062 2 0.0334706 -13.8532 -22.5908 0.4238 
7156 2416 2 -0.0744936 -12.284 -24.4399 0.4238 
3355 1149 2 -0.252155 -17.4544 -18.0304 0.4238 
2323 805 2 0.127365 -16.3465 -22.3048 0.4238 
6095 2062 3 0.0432448 -14.4896 -21.8194 -0.8476 
6481 2191 2 -7.94254 -17.8375 -19.7653 0.4238 
1104 398 2 -16.4488 -6.94052 -20.0472 0.4238 
6325 2139 2 -13.7674 -1.08207 -25.7313 0.4238 
2037 709 2 -11.0663 -8.51721 -22.2823 0.4238 
2036 709 3 -11.999 -8.87666 -22.3128 -0.8476 
3994 1362 2 -8.39379 -0.448365 -20.2023 0.4238 
151 81 2 -8.99132 -8.02767 -18.7307 0.4238 
3630 1240 2 -16.3705 -7.92111 -24.2012 0.4238 
1178 423 3 -9.3596 -8.97191 -22.0959 -0.8476 
1790 627 3 -14.8518 -1.81621 -20.7928 -0.8476 
1179 423 2 -8.76057 -8.18887 -21.9286 0.4238 
1102 398 2 -15.2459 -7.59984 -19.4959 0.4238 
2035 709 2 -12.286 -8.43233 -23.1615 0.4238 
657 249 2 -14.9959 -4.32092 -22.8818 0.4238 
656 249 3 -15.8035 -3.86022 -22.5137 -0.8476 
655 249 2 -15.4708 -3.11933 -21.9302 0.4238 
7600 2564 2 -9.51579 -2.5133 -24.3929 0.4238 
1360 484 2 -13.2062 -8.54535 -21.078 0.4238 
887 326 3 -13.7219 -5.1564 -23.5396 -0.8476 
886 326 2 -13.4632 -5.53999 -24.4261 0.4238 
888 326 2 -12.9032 -5.21903 -22.9689 0.4238 
3002 1031 3 -15.1874 -8.53868 -23.1756 -0.8476 
3003 1031 2 -14.4509 -8.63593 -23.845 0.4238 
3001 1031 2 -14.9919 -7.70452 -22.6599 0.4238 
3317 1136 3 -13.5852 -3.19183 -25.1242 -0.8476 
3318 1136 2 -13.8095 -3.95982 -24.5243 0.4238 
7136 2409 3 -12.5626 -2.56743 -22.2571 -0.8476 
7135 2409 2 -11.9486 -2.67006 -21.4745 0.4238 
7137 2409 2 -13.3978 -2.41405 -21.7291 0.4238 
3316 1136 2 -12.8949 -2.65991 -24.6337 0.4238 
4388 1493 3 -13.1768 -0.922169 -17.7258 -0.8476 
7639 2599 4 -12.9667 -8.23213 -24.9128 -1 
6370 2154 2 -11.3635 -5.26592 -21.2263 0.4238 
7294 2462 2 -11.2409 -0.958849 -24.231 0.4238 
7296 2462 2 -11.9419 -1.16373 -22.9409 0.4238 
7601 2564 3 -10.3029 -2.22551 -24.9385 -0.8476 
4378 1490 2 -12.5653 -1.93108 -19.3109 0.4238 
4379 1490 3 -11.8948 -2.56893 -19.6897 -0.8476 
4380 1490 2 -10.9616 -2.23579 -19.5543 0.4238 
6371 2154 3 -11.4541 -5.14951 -20.2372 -0.8476 
7544 2545 3 -15.4493 -4.30754 -19.3163 -0.8476 
7602 2564 2 -10.2867 -2.8278 -25.7366 0.4238 
3342 1144 2 -11.6761 -6.91219 -25.0469 0.4238 
5950 2014 2 -10.7622 -5.66881 -23.6116 0.4238 
5951 2014 3 -10.9649 -5.19013 -22.7573 -0.8476 
5952 2014 2 -10.6643 -4.25879 -22.9628 0.4238 
3341 1144 3 -10.8866 -6.29951 -25.0821 -0.8476 
1361 484 3 -13.5927 -8.20375 -20.2213 -0.8476 
6372 2154 2 -11.5913 -4.1784 -20.042 0.4238 
1791 627 2 -14.6617 -0.940767 -20.3484 0.4238 
1362 484 2 -12.7322 -7.87682 -19.8305 0.4238 
6464 2185 3 -9.1047 -2.06921 -19.4571 -0.8476 
2021 704 3 -11.7634 -7.00516 -18.5069 -0.8476 
2020 704 2 -11.6912 -6.3494 -19.2584 0.4238 
3340 1144 2 -10.5063 -6.66128 -25.9333 0.4238 
6463 2185 2 -9.07225 -2.11857 -18.4589 0.4238 
7543 2545 2 -14.5897 -4.46899 -18.8316 0.4238 
1789 627 2 -14.9773 -2.45877 -20.037 0.4238 
4774 1622 2 -16.7288 -3.19266 -19.0141 0.4238 
1103 398 3 -16.1824 -7.40641 -19.2034 -0.8476 
6465 2185 2 -8.61412 -2.84564 -19.8527 0.4238 
6177 2089 2 -8.5734 -5.81182 -20.2438 0.4238 
113 68 3 -17.1213 -6.37655 -21.5331 -0.8476 
152 81 3 -9.57415 -8.44597 -18.034 -0.8476 
6586 2226 2 -15.3207 -7.198 -17.7213 0.4238 
7545 2545 2 -15.8403 -5.21274 -19.4828 0.4238 
2022 704 2 -10.8743 -7.46021 -18.4577 0.4238 
3145 1079 2 -12.6942 -5.60372 -17.5532 0.4238 
7295 2462 3 -11.6484 -0.396653 -23.5114 -0.8476 
112 68 2 -16.8805 -5.60538 -22.1225 0.4238 
4525 1539 2 -2.20107 -0.802249 -24.0159 0.4238 
612 234 2 -7.19659 -0.40434 -23.4886 0.4238 
1963 685 2 -0.0424784 -0.70451 -18.9072 0.4238 
2519 870 3 -6.07689 -8.87595 -21.5036 -0.8476 
6175 2089 2 -7.49272 -6.38705 -19.1491 0.4238 
6638 2243 3 -0.605592 -8.93518 -20.7294 -0.8476 
2805 965 2 -7.07323 -7.22827 -25.755 0.4238 
1159 417 2 -8.21629 -3.73137 -21.9394 0.4238 
4526 1539 3 -1.37834 -1.30384 -23.7485 -0.8476 
2520 870 2 -6.70236 -8.09609 -21.5281 0.4238 
2803 965 2 -6.56249 -8.23968 -24.6895 0.4238 
3800 1297 3 -3.39678 -8.37864 -21.2421 -0.8476 
5643 1911 2 -6.28957 -7.81436 -17.3378 0.4238 
2804 965 3 -6.70853 -7.25964 -24.8244 -0.8476 
3801 1297 2 -4.37272 -8.58115 -21.323 0.4238 
1295 462 3 -8.30473 -3.06107 -23.4076 -0.8476 
6176 2089 3 -8.29389 -6.60697 -19.7056 -0.8476 
6328 2140 2 -5.61886 -6.13991 -22.3628 0.4238 
6330 2140 2 -6.85509 -6.62777 -23.1781 0.4238 
5199 1763 2 -1.47408 -7.6959 -23.9451 0.4238 
611 234 3 -6.75755 -0.993752 -22.8105 -0.8476 
3951 1347 2 -6.50258 -5.47691 -24.8854 0.4238 
3950 1347 3 -6.61065 -4.49331 -25.0298 -0.8476 
6291 2127 2 -3.01687 -3.39971 -21.3466 0.4238 
5197 1763 2 -0.626014 -6.39698 -23.3014 0.4238 
3718 1270 2 -5.08911 -4.00845 -24.3648 0.4238 
6329 2140 3 -6.61625 -6.19029 -22.3112 -0.8476 
1160 417 3 -8.06528 -4.18817 -21.0628 -0.8476 
1161 417 2 -7.38649 -4.8507 -21.3795 0.4238 
2580 890 2 -3.93818 -5.43796 -20.555 0.4238 
2579 890 3 -3.89485 -5.53066 -19.5602 -0.8476 
2578 890 2 -3.3609 -4.78508 -19.1615 0.4238 
1296 462 2 -7.78168 -3.6696 -24.0043 0.4238 
14 14 1 -2.33574 -7.65228 -18.9925 1 
1294 462 2 -7.63255 -2.34077 -23.2363 0.4238 
5425 1839 2 -4.24021 -1.67404 -20.5304 0.4238 
5427 1839 2 -5.58245 -2.05827 -21.3641 0.4238 
4552 1548 2 -3.40926 -8.03193 -25.4595 0.4238 
4553 1548 3 -3.31217 -7.96405 -24.4665 -0.8476 
4554 1548 2 -3.92598 -8.67792 -24.1294 0.4238 
5426 1839 3 -4.85953 -2.41998 -20.7754 -0.8476 
5637 1909 2 -1.68333 -4.33239 -18.7517 0.4238 
5636 1909 3 -2.29051 -3.55657 -18.5801 -0.8476 
5317 1803 2 -5.7768 -3.07187 -19.5572 0.4238 
5318 1803 3 -6.47407 -3.53724 -19.012 -0.8476 
5635 1909 2 -1.77485 -2.70224 -18.5152 0.4238 
1042 378 2 -3.78314 -4.87444 -22.8304 0.4238 
2272 788 2 -1.08502 -4.45315 -21.7648 0.4238 
5319 1803 2 -6.88942 -4.06088 -19.7558 0.4238 
1044 378 2 -3.09098 -6.24303 -22.4932 0.4238 
1043 378 3 -3.79656 -5.61715 -22.1609 -0.8476 
6477 2189 2 -5.19367 -5.87324 -18.6547 0.4238 
1964 685 3 -0.213852 -1.44025 -18.2519 -0.8476 
2273 788 3 -0.517781 -5.27324 -21.8402 -0.8476 
2274 788 2 -0.300343 -5.42631 -20.8762 0.4238 
6290 2127 3 -2.13266 -2.98705 -21.5654 -0.8476 
3719 1270 3 -4.19447 -3.69081 -24.0506 -0.8476 
3720 1270 2 -3.96918 -2.89472 -24.6123 0.4238 
6289 2127 2 -2.28009 -2.08144 -21.1677 0.4238 
6476 2189 3 -6.013 -6.23276 -18.2081 -0.8476 
5198 1763 3 -0.599846 -7.21545 -23.8753 -0.8476 
414 168 2 -0.75818 -3.15147 -24.2649 0.4238 
412 168 2 -0.401768 -4.4566 -23.3642 0.4238 
1979 690 3 -5.1718 -1.2626 -25.306 -0.8476 
413 168 3 -0.277082 -4.02811 -24.2591 -0.8476 
4527 1539 2 -1.8511 -1.93024 -23.1287 0.4238 
6421 2171 2 -6.03251 -2.84853 -17.5627 0.4238 
6046 2046 2 -3.29014 -0.749322 -19.1959 0.4238 
6047 2046 3 -2.89192 -0.694957 -20.1116 -0.8476 
81 57 2 -0.291897 -6.30021 -17.4647 0.4238 
2096 729 3 -3.77316 -0.797905 -17.5932 -0.8476 
4686 1592 2 0.273541 -5.01113 -25.491 0.4238 
6475 2189 2 -6.17087 -5.53088 -17.5136 0.4238 
291 127 2 -0.979224 -1.25368 -25.4659 0.4238 
7614 2574 4 -0.27886 -5.58997 -19.1457 -1 
6637 2243 2 0.260931 -8.67029 -21.1525 0.4238 
610 234 2 -6.39455 -0.34133 -22.1452 0.4238 
1978 690 2 -5.10797 -0.964261 -24.3536 0.4238 
1980 690 2 -6.11972 -1.01942 -25.5116 0.4238 
2168 753 3 -11.071 -13.2305 -16.9168 -0.8476 
2167 753 2 -11.5606 -12.3627 -16.8328 0.4238 
450 180 2 -15.3327 -13.8635 -17.1267 0.4238 
2169 753 2 -11.538 -13.9728 -16.4362 0.4238 
3847 1313 2 -13.4761 -10.3713 -17.0554 0.4238 
5639 1910 3 -16.2712 -13.6729 -13.8581 -0.8476 
448 180 2 -14.6467 -12.6341 -16.3524 0.4238 
449 180 3 -15.0863 -13.5224 -16.2195 -0.8476 
5362 1818 2 -14.8875 -10.4156 -9.95115 0.4238 
5364 1818 2 -16.0414 -11.2244 -9.25535 0.4238 
318 136 2 -13.4283 -14.3962 -15.7012 0.4238 
317 136 3 -12.6014 -14.7587 -15.2713 -0.8476 
316 136 2 -12.1162 -14.0174 -14.8078 0.4238 
2074 722 2 -16.2822 -11.9541 -14.3289 0.4238 
5038 1710 2 -14.2856 -10.9164 -14.8515 0.4238 
5039 1710 3 -13.7002 -11.3773 -15.5185 -0.8476 
5040 1710 2 -12.7831 -11.2328 -15.1468 0.4238 
5096 1729 3 -15.2718 -13.3514 -11.3786 -0.8476 
5097 1729 2 -15.9234 -12.9614 -10.728 0.4238 
1498 530 2 -11.7818 -14.1007 -10.4622 0.4238 
1499 530 3 -12.2113 -13.6153 -11.2237 -0.8476 
1500 530 2 -13.0662 -14.1342 -11.2281 0.4238 
5363 1818 3 -15.1343 -10.8414 -9.08067 -0.8476 
5095 1729 2 -15.656 -13.4789 -12.293 0.4238 
595 229 2 -11.2413 -13.5755 -12.6652 0.4238 
1507 533 2 -14.5167 -14.9577 -10.9002 0.4238 
597 229 2 -9.93546 -13.8984 -13.4765 0.4238 
596 229 3 -10.7725 -13.353 -13.52 -0.8476 
2075 722 3 -16.0343 -11.0201 -14.0718 -0.8476 
3744 1278 2 -12.7517 -11.9284 -11.3035 0.4238 
3743 1278 3 -12.571 -10.9537 -11.172 -0.8476 
456 182 2 -11.5228 -16.2758 -15.2573 0.4238 
7449 2513 2 -10.8284 -11.806 -14.1901 0.4238 
32 32 1 -8.75684 -17.2808 -14.1708 1 
7447 2513 2 -10.3187 -10.3837 -14.776 0.4238 
7448 2513 3 -11.1297 -10.9302 -14.5669 -0.8476 
1508 533 3 -14.5424 -15.9104 -10.5974 -0.8476 
1509 533 2 -14.7619 -15.6815 -9.64907 0.4238 
361 151 2 -11.9191 -17.2274 -10.3435 0.4238 
2076 722 2 -16.7629 -10.3972 -14.3565 0.4238 
214 102 2 -10.0813 -15.2041 -10.1929 0.4238 
3742 1278 2 -11.9237 -10.8327 -10.4194 0.4238 
215 102 3 -10.9144 -15.2513 -9.64185 -0.8476 
5948 2013 3 -15.0062 -9.82439 -11.775 -0.8476 
5947 2013 2 -15.3726 -10.4549 -12.4593 0.4238 
2962 1018 2 -10.085 -10.356 -8.70604 0.4238 
2963 1018 3 -10.7276 -10.2061 -9.4574 -0.8476 
216 102 2 -10.6047 -14.996 -8.72592 0.4238 
4952 1681 3 -8.54838 -14.6727 -13.2572 -0.8476 
5949 2013 2 -14.1252 -10.1302 -11.4138 0.4238 
2329 807 2 -12.4416 -9.4864 -13.5763 0.4238 