created by fftool

9442 atoms
5040 bonds
2520 angles
5 atom types
1 bond types
1 angle types
  -17.153631885    18.003017118 xlo xhi
   -17.855467919    17.553981017 ylo yhi
   -34.618715923    34.618715923 zlo zhi

Masses

   1   39.098  # K
   2    1.008  # Hw
   3   15.999  # Ow
   4   35.453  # Cl
   5   12.011

Bond Coeffs

   1   517.630258     1.000000  # Ow-Hw

Angle Coeffs

   1    37.950526   109.470000  # Hw-Ow-Hw

Atoms

      1       1    1   1.000000  8.910396e+00  1.148582e+01 -2.289852e+01  # K K+
      2       2    1   1.000000 -1.042765e+01 -1.546614e+01 -1.833827e+00  # K K+
      3       3    1   1.000000  6.597424e+00  1.250523e+01 -2.381871e+01  # K K+
      4       4    1   1.000000 -5.822231e+00  2.412577e+00  9.682610e+00  # K K+
      5       5    1   1.000000 -1.579832e+01 -5.549960e+00  7.665532e+00  # K K+
      6       6    1   1.000000 -7.362295e+00 -9.729445e+00 -3.955697e+00  # K K+
      7       7    1   1.000000 -1.531550e+01 -2.878977e+00  8.682799e+00  # K K+
      8       8    1   1.000000 -1.248121e+01 -1.594141e+01 -4.775358e+00  # K K+
      9       9    1   1.000000  2.013758e+00  1.081156e+01 -1.968842e+01  # K K+
     10      10    1   1.000000  5.150312e+00  6.409322e+00 -1.843199e+01  # K K+
     11      11    1   1.000000 -1.540513e+01  1.330676e+00 -1.034473e+00  # K K+
     12      12    1   1.000000  4.550684e+00  8.561343e+00 -1.948640e+01  # K K+
     13      13    1   1.000000 -1.479512e+01 -8.362554e+00 -4.740283e+00  # K K+
     14      14    1   1.000000 -6.430222e+00  2.470744e+00  1.206568e+01  # K K+
     15      15    1   1.000000 -1.429061e+01 -1.472232e+01  3.311419e+00  # K K+
     16      16    1   1.000000 -1.440328e+00  1.565236e+01 -1.507898e+01  # K K+
     17      17    1   1.000000 -1.175762e+01 -1.328285e+01 -2.536775e+00  # K K+
     18      18    1   1.000000 -1.478371e+01 -1.262422e+01 -5.225619e+00  # K K+
     19      19    1   1.000000 -7.351218e+00 -1.920400e-01  1.142457e+01  # K K+
     20      20    1   1.000000 -1.549197e+01  4.370104e+00  2.816931e+01  # K K+
     21      21    1   1.000000 -1.520483e+01 -1.272283e+01 -2.749011e+00  # K K+
     22      22    1   1.000000 -1.358177e+01 -1.239913e+01  3.727031e+00  # K K+
     23      23    1   1.000000 -7.345087e+00 -1.194820e+01 -1.826571e+00  # K K+
     24      24    1   1.000000 -1.546482e+01 -1.331897e+01  4.999009e+00  # K K+
     25      25    1   1.000000 -1.495316e+01 -1.166447e+01  1.807703e+00  # K K+
     26      26    1   1.000000 -1.515223e+01  1.398866e+00 -8.575262e+00  # K K+
     27      27    1   1.000000  6.684597e+00  9.703748e+00 -1.985543e+01  # K K+
     28      28    1   1.000000 -1.249160e+01 -1.350372e+01 -4.904195e+00  # K K+
     29      29    1   1.000000 -8.142431e+00  1.910616e+00  1.038272e+01  # K K+
     30      30    1   1.000000  5.458532e+00  1.517745e+01 -1.527366e+01  # K K+
     31      31    1   1.000000  1.597360e-01  1.055827e+01 -1.801353e+01  # K K+
     32      32    1   1.000000 -1.541686e+01 -1.055570e+01 -3.877002e+00  # K K+
     33      33    1   1.000000 -1.566278e+01 -1.275794e+01 -3.165690e-01  # K K+
     34      34    1   1.000000 -1.571196e+01 -1.263902e+01  7.379264e+00  # K K+
     35      35    1   1.000000 -1.567565e+01 -7.999799e+00  7.239412e+00  # K K+
     36      36    1   1.000000 -1.613237e+01 -7.264054e+00  7.703620e-01  # K K+
     37      37    1   1.000000 -1.319199e+01 -1.159597e+01 -3.606214e+00  # K K+
     38      38    1   1.000000  1.963547e+00  1.573224e+01 -2.030063e+01  # K K+
     39      39    1   1.000000 -1.442347e+01 -1.471038e+01 -3.930588e+00  # K K+
     40      40    1   1.000000 -1.507324e+01 -7.621876e+00  4.871500e+00  # K K+
     41      41    1   1.000000 -1.514137e+01 -8.422276e+00 -2.279233e+00  # K K+
     42      42    1   1.000000 -1.514494e+01  1.077955e+01  2.592889e+01  # K K+
     43      43    1   1.000000  9.786870e-01  8.271837e+00 -1.777950e+01  # K K+
     44      44    1   1.000000  4.672327e+00  1.543179e+01 -1.761637e+01  # K K+
     45      45    1   1.000000 -9.293875e+00 -1.333741e+01 -2.425818e+00  # K K+
     46      46    2   0.423800  5.931441e+00  8.761180e-01  1.717736e+01  # Hw SPCE
     47      46    3  -0.847600  6.576637e+00  5.948680e-01  1.646700e+01  # Ow SPCE
     48      46    2   0.423800  6.240581e+00 -2.346790e-01  1.602099e+01  # Hw SPCE
     49      47    2   0.423800 -9.321234e+00  8.411951e+00 -1.755836e+01  # Hw SPCE
     50      47    3  -0.847600 -8.674750e+00  7.653441e+00 -1.747638e+01  # Ow SPCE
     51      47    2   0.423800 -8.055733e+00  7.824454e+00 -1.670984e+01  # Hw SPCE
     52      48    2   0.423800 -5.469746e+00  1.393683e+01 -1.505038e+01  # Hw SPCE
     53      48    3  -0.847600 -6.289352e+00  1.424767e+01 -1.456910e+01  # Ow SPCE
     54      48    2   0.423800 -6.104571e+00  1.512669e+01 -1.412958e+01  # Hw SPCE
     55      49    2   0.423800  1.151187e+01  8.039160e+00  2.015132e+01  # Hw SPCE
     56      49    3  -0.847600  1.116945e+01  7.300893e+00  2.073244e+01  # Ow SPCE
     57      49    2   0.423800  1.184607e+01  6.565546e+00  2.077051e+01  # Hw SPCE
     58      50    2   0.423800 -9.944154e+00 -5.109982e+00  3.652922e+00  # Hw SPCE
     59      50    3  -0.847600 -8.963189e+00 -5.281640e+00  3.562135e+00  # Ow SPCE
     60      50    2   0.423800 -8.818360e+00 -6.107505e+00  3.017185e+00  # Hw SPCE
     61      51    2   0.423800 -5.967028e+00 -1.243715e+01  2.682137e+01  # Hw SPCE
     62      51    3  -0.847600 -5.073432e+00 -1.220892e+01  2.643484e+01  # Ow SPCE
     63      51    2   0.423800 -4.563617e+00 -1.305008e+01  2.625447e+01  # Hw SPCE
     64      52    2   0.423800 -1.991055e+00  3.057864e+00  9.863049e+00  # Hw SPCE
     65      52    3  -0.847600 -2.493561e+00  2.507060e+00  9.196638e+00  # Ow SPCE
     66      52    2   0.423800 -3.355086e+00  2.199323e+00  9.600460e+00  # Hw SPCE
     67      53    2   0.423800 -7.189290e+00  8.198060e-01  1.787278e+01  # Hw SPCE
     68      53    3  -0.847600 -6.546115e+00  1.337656e+00  1.843683e+01  # Ow SPCE
     69      53    2   0.423800 -6.753079e+00  2.313565e+00  1.836779e+01  # Hw SPCE
     70      54    2   0.423800  1.589243e+00  5.337133e+00  1.454022e+01  # Hw SPCE
     71      54    3  -0.847600  1.732843e+00  4.771454e+00  1.372820e+01  # Ow SPCE
     72      54    2   0.423800  8.675040e-01  4.665856e+00  1.323826e+01  # Hw SPCE
     73      55    2   0.423800 -8.790790e-01  2.556717e+00  6.964495e+00  # Hw SPCE
     74      55    3  -0.847600 -1.708811e+00  3.108528e+00  6.880537e+00  # Ow SPCE
     75      55    2   0.423800 -2.371728e+00  2.628364e+00  6.306096e+00  # Hw SPCE
     76      56    2   0.423800  8.819142e+00  1.097616e+01 -1.986804e+01  # Hw SPCE
     77      56    3  -0.847600  9.718860e+00  1.135116e+01 -2.009138e+01  # Ow SPCE
     78      56    2   0.423800  1.012619e+01  1.082016e+01 -2.083443e+01  # Hw SPCE
     79      57    2   0.423800  1.119441e+01  6.434761e+00  4.112748e+00  # Hw SPCE
     80      57    3  -0.847600  1.127210e+01  7.007929e+00  4.928495e+00  # Ow SPCE
     81      57    2   0.423800  1.188657e+01  7.774082e+00  4.740246e+00  # Hw SPCE
     82      58    2   0.423800 -5.126649e+00 -1.373270e-01  3.302165e+00  # Hw SPCE
     83      58    3  -0.847600 -4.900063e+00 -5.254810e-01  4.195471e+00  # Ow SPCE
     84      58    2   0.423800 -4.271264e+00 -1.293706e+00  4.075295e+00  # Hw SPCE
     85      59    2   0.423800  1.954829e+00 -1.148733e+01  5.107276e+00  # Hw SPCE
     86      59    3  -0.847600  1.065953e+00 -1.104408e+01  5.223149e+00  # Ow SPCE
     87      59    2   0.423800  3.471150e-01 -1.173896e+01  5.243532e+00  # Hw SPCE
     88      60    2   0.423800  1.260093e+01 -3.077860e+00 -9.452716e+00  # Hw SPCE
     89      60    3  -0.847600  1.196322e+01 -3.143911e+00 -8.685273e+00  # Ow SPCE
     90      60    2   0.423800  1.202586e+01 -4.054751e+00 -8.277296e+00  # Hw SPCE
     91      61    2   0.423800  7.065403e+00 -1.269839e+01  1.443236e+00  # Hw SPCE
     92      61    3  -0.847600  6.561727e+00 -1.198562e+01  9.550970e-01  # Ow SPCE
     93      61    2   0.423800  7.159700e+00 -1.119831e+01  8.048710e-01  # Hw SPCE
     94      62    2   0.423800  8.269717e+00  1.721515e+00 -1.223863e+01  # Hw SPCE
     95      62    3  -0.847600  7.949148e+00  2.383291e+00 -1.291634e+01  # Ow SPCE
     96      62    2   0.423800  7.161134e+00  2.006570e+00 -1.340329e+01  # Hw SPCE
     97      63    2   0.423800  1.854916e+00  2.779764e+00 -2.340139e+01  # Hw SPCE
     98      63    3  -0.847600  1.664474e+00  2.469975e+00 -2.246985e+01  # Ow SPCE
     99      63    2   0.423800  2.148069e+00  3.054865e+00 -2.181867e+01  # Hw SPCE
    100      64    2   0.423800  1.205207e+01  8.948303e+00 -1.992770e+01  # Hw SPCE
    101      64    3  -0.847600  1.110882e+01  8.650271e+00 -2.007422e+01  # Ow SPCE
    102      64    2   0.423800  1.109671e+01  7.672012e+00 -2.028126e+01  # Hw SPCE
    103      65    2   0.423800  1.352921e+01 -4.119467e+00 -2.906172e+00  # Hw SPCE
    104      65    3  -0.847600  1.452464e+01 -4.052224e+00 -2.838384e+00  # Ow SPCE
    105      65    2   0.423800  1.490950e+01 -4.960117e+00 -2.672205e+00  # Hw SPCE
    106      66    2   0.423800 -6.246870e+00 -7.798930e+00  2.981257e+01  # Hw SPCE
    107      66    3  -0.847600 -5.810163e+00 -7.246492e+00  2.910257e+01  # Ow SPCE
    108      66    2   0.423800 -5.391985e+00 -6.439008e+00  2.951862e+01  # Hw SPCE
    109      67    2   0.423800 -1.115970e+01  1.489632e+01 -2.907875e+00  # Hw SPCE
    110      67    3  -0.847600 -1.049499e+01  1.438363e+01 -3.451288e+00  # Ow SPCE
    111      67    2   0.423800 -9.969677e+00  1.501694e+01 -4.019591e+00  # Hw SPCE
    112      68    2   0.423800 -5.068966e+00 -5.779555e+00  5.502443e+00  # Hw SPCE
    113      68    3  -0.847600 -4.827880e+00 -6.666725e+00  5.895899e+00  # Ow SPCE
    114      68    2   0.423800 -5.605025e+00 -7.023787e+00  6.414119e+00  # Hw SPCE
    115      69    2   0.423800 -1.154466e+01 -5.768270e+00 -5.732035e+00  # Hw SPCE
    116      69    3  -0.847600 -1.078279e+01 -6.338013e+00 -6.040180e+00  # Ow SPCE
    117      69    2   0.423800 -9.927948e+00 -5.826251e+00 -5.954530e+00  # Hw SPCE
    118      70    2   0.423800  1.146188e+01  3.115711e+00  1.751744e+01  # Hw SPCE
    119      70    3  -0.847600  1.081342e+01  3.864181e+00  1.737854e+01  # Ow SPCE
    120      70    2   0.423800  9.963221e+00  3.663208e+00  1.786514e+01  # Hw SPCE
    121      71    2   0.423800 -1.500099e+00  1.280622e+01 -2.959467e+01  # Hw SPCE
    122      71    3  -0.847600 -2.333760e+00  1.238980e+01 -2.995744e+01  # Ow SPCE
    123      71    2   0.423800 -3.028869e+00  1.309638e+01 -3.008994e+01  # Hw SPCE
    124      72    2   0.423800 -9.249836e+00  1.034304e+01  1.854330e+01  # Hw SPCE
    125      72    3  -0.847600 -1.001123e+01  9.821582e+00  1.892847e+01  # Ow SPCE
    126      72    2   0.423800 -9.762160e+00  9.491163e+00  1.983885e+01  # Hw SPCE
    127      73    2   0.423800 -2.212993e+00  5.496649e+00  9.635766e+00  # Hw SPCE
    128      73    3  -0.847600 -2.724157e+00  5.970960e+00  1.035252e+01  # Ow SPCE
    129      73    2   0.423800 -2.855720e+00  5.356444e+00  1.113038e+01  # Hw SPCE
    130      74    2   0.423800 -4.053628e+00  1.359478e+01  2.980950e+01  # Hw SPCE
    131      74    3  -0.847600 -4.420997e+00  1.426670e+01  2.916641e+01  # Ow SPCE
    132      74    2   0.423800 -5.409533e+00  1.434553e+01  2.929518e+01  # Hw SPCE
    133      75    2   0.423800  3.313810e+00 -1.134915e+00  4.629745e+00  # Hw SPCE
    134      75    3  -0.847600  3.913391e+00 -6.110290e-01  4.024728e+00  # Ow SPCE
    135      75    2   0.423800  4.764955e+00 -3.968140e-01  4.503214e+00  # Hw SPCE
    136      76    2   0.423800  1.470249e+01 -1.137402e+01  8.688130e-01  # Hw SPCE
    137      76    3  -0.847600  1.446934e+01 -1.227411e+01  5.007320e-01  # Ow SPCE
    138      76    2   0.423800  1.353725e+01 -1.225504e+01  1.389900e-01  # Hw SPCE
    139      77    2   0.423800 -4.041080e+00  1.396803e+01  1.083643e+01  # Hw SPCE
    140      77    3  -0.847600 -3.970463e+00  1.483561e+01  1.034418e+01  # Ow SPCE
    141      77    2   0.423800 -3.725065e+00  1.465900e+01  9.390986e+00  # Hw SPCE
    142      78    2   0.423800 -1.253495e+01  8.129036e+00  1.602510e+00  # Hw SPCE
    143      78    3  -0.847600 -1.270661e+01  8.739523e+00  2.375710e+00  # Ow SPCE
    144      78    2   0.423800 -1.260942e+01  9.689352e+00  2.078425e+00  # Hw SPCE
    145      79    2   0.423800 -9.037258e+00 -1.474745e+01 -7.728351e+00  # Hw SPCE
    146      79    3  -0.847600 -8.322138e+00 -1.476340e+01 -7.029531e+00  # Ow SPCE
    147      79    2   0.423800 -7.528074e+00 -1.424904e+01 -7.353409e+00  # Hw SPCE
    148      80    2   0.423800 -1.349522e+01 -6.448984e+00 -3.842356e+00  # Hw SPCE
    149      80    3  -0.847600 -1.438347e+01 -6.347451e+00 -3.394360e+00  # Ow SPCE
    150      80    2   0.423800 -1.463355e+01 -5.379655e+00 -3.365524e+00  # Hw SPCE
    151      81    2   0.423800 -1.260335e+01  5.862971e+00  4.757546e+00  # Hw SPCE
    152      81    3  -0.847600 -1.239102e+01  4.990875e+00  4.316679e+00  # Ow SPCE
    153      81    2   0.423800 -1.158979e+01  4.582622e+00  4.754117e+00  # Hw SPCE
    154      82    2   0.423800 -7.442750e+00  9.741231e+00 -7.928761e+00  # Hw SPCE
    155      82    3  -0.847600 -8.230857e+00  9.946425e+00 -8.509091e+00  # Ow SPCE
    156      82    2   0.423800 -8.951882e+00  9.273954e+00 -8.342039e+00  # Hw SPCE
    157      83    2   0.423800 -3.861950e-01  7.604010e+00  8.391405e+00  # Hw SPCE
    158      83    3  -0.847600 -1.369414e+00  7.430991e+00  8.333581e+00  # Ow SPCE
    159      83    2   0.423800 -1.758103e+00  7.964419e+00  7.582332e+00  # Hw SPCE
    160      84    2   0.423800  1.090838e+01 -7.911517e+00  2.123005e+01  # Hw SPCE
    161      84    3  -0.847600  1.151681e+01 -8.094689e+00  2.045787e+01  # Ow SPCE
    162      84    2   0.423800  1.239737e+01 -7.647164e+00  2.061389e+01  # Hw SPCE
    163      85    2   0.423800 -4.495200e-01 -1.529918e+01  1.922769e+01  # Hw SPCE
    164      85    3  -0.847600  4.985440e-01 -1.517583e+01  1.893450e+01  # Ow SPCE
    165      85    2   0.423800  7.792710e-01 -1.423094e+01  1.910295e+01  # Hw SPCE
    166      86    2   0.423800  9.460100e-01 -2.067024e+00  1.594441e+01  # Hw SPCE
    167      86    3  -0.847600  1.470890e+00 -2.770206e+00  1.642404e+01  # Ow SPCE
    168      86    2   0.423800  2.347929e+00 -2.904230e+00  1.596269e+01  # Hw SPCE
    169      87    2   0.423800 -5.119027e+00 -2.649524e+00 -2.038235e+01  # Hw SPCE
    170      87    3  -0.847600 -5.906911e+00 -2.730431e+00 -1.977187e+01  # Ow SPCE
    171      87    2   0.423800 -5.778054e+00 -3.513446e+00 -1.916336e+01  # Hw SPCE
    172      88    2   0.423800 -8.196828e+00 -8.281412e+00  7.023233e+00  # Hw SPCE
    173      88    3  -0.847600 -7.329542e+00 -8.770081e+00  6.928275e+00  # Ow SPCE
    174      88    2   0.423800 -7.361928e+00 -9.613768e+00  7.464132e+00  # Hw SPCE
    175      89    2   0.423800  2.621558e+00 -1.170103e+01  9.491110e-01  # Hw SPCE
    176      89    3  -0.847600  2.797479e+00 -1.201594e+01  1.643500e-02  # Ow SPCE
    177      89    2   0.423800  3.770221e+00 -1.222325e+01 -8.746300e-02  # Hw SPCE
    178      90    2   0.423800 -4.140072e+00  3.070850e-01 -2.602113e+01  # Hw SPCE
    179      90    3  -0.847600 -3.790139e+00 -3.487110e-01 -2.535219e+01  # Ow SPCE
    180      90    2   0.423800 -4.551967e+00 -7.273460e-01 -2.482659e+01  # Hw SPCE
    181      91    2   0.423800  6.084114e+00 -4.118514e+00 -3.063968e+00  # Hw SPCE
    182      91    3  -0.847600  6.757656e+00 -4.680126e+00 -2.583414e+00  # Ow SPCE
    183      91    2   0.423800  6.953618e+00 -4.274625e+00 -1.690572e+00  # Hw SPCE
    184      92    2   0.423800 -8.385743e+00 -3.056185e+00 -1.552376e+01  # Hw SPCE
    185      92    3  -0.847600 -9.146857e+00 -2.519016e+00 -1.588729e+01  # Ow SPCE
    186      92    2   0.423800 -9.736057e+00 -3.107815e+00 -1.644061e+01  # Hw SPCE
    187      93    2   0.423800  3.270360e-01 -5.226327e+00 -1.656399e+01  # Hw SPCE
    188      93    3  -0.847600 -1.225000e-01 -6.119411e+00 -1.658179e+01  # Ow SPCE
    189      93    2   0.423800 -5.943160e-01 -6.237724e+00 -1.745551e+01  # Hw SPCE
    190      94    2   0.423800 -9.618400e-02 -1.072821e+01  1.895133e+01  # Hw SPCE
    191      94    3  -0.847600  6.499700e-02 -1.168250e+01  1.920301e+01  # Ow SPCE
    192      94    2   0.423800  1.048289e+00 -1.184309e+01  1.928871e+01  # Hw SPCE
    193      95    2   0.423800  8.829543e+00  1.312551e+01 -1.696428e+01  # Hw SPCE
    194      95    3  -0.847600  9.320344e+00  1.374310e+01 -1.634971e+01  # Ow SPCE
    195      95    2   0.423800  9.479091e+00  1.461591e+01 -1.681122e+01  # Hw SPCE
    196      96    2   0.423800  3.587682e+00 -4.817654e+00  1.749443e+00  # Hw SPCE
    197      96    3  -0.847600  4.247404e+00 -4.577883e+00  2.461677e+00  # Ow SPCE
    198      96    2   0.423800  3.951619e+00 -4.966303e+00  3.334397e+00  # Hw SPCE
    199      97    2   0.423800 -6.341455e+00  8.695963e+00 -2.864585e+01  # Hw SPCE
    200      97    3  -0.847600 -6.741424e+00  8.473322e+00 -2.775677e+01  # Ow SPCE
    201      97    2   0.423800 -6.556725e+00  9.215790e+00 -2.711286e+01  # Hw SPCE
    202      98    2   0.423800 -3.354577e+00 -1.469261e+01  6.446327e+00  # Hw SPCE
    203      98    3  -0.847600 -4.308218e+00 -1.499355e+01  6.445328e+00  # Ow SPCE
    204      98    2   0.423800 -4.909814e+00 -1.419475e+01  6.445007e+00  # Hw SPCE
    205      99    2   0.423800  1.067839e+01  4.270822e+00  3.083831e+00  # Hw SPCE
    206      99    3  -0.847600  9.682638e+00  4.181288e+00  3.062248e+00  # Ow SPCE
    207      99    2   0.423800  9.380202e+00  4.049642e+00  2.118213e+00  # Hw SPCE
    208     100    2   0.423800 -2.108701e+00  1.085410e+00 -8.899496e+00  # Hw SPCE
    209     100    3  -0.847600 -2.845317e+00  7.925390e-01 -9.509105e+00  # Ow SPCE
    210     100    2   0.423800 -3.446056e+00  1.568208e+00 -9.702622e+00  # Hw SPCE
    211     101    2   0.423800  4.965606e+00 -1.313187e+00  8.763204e+00  # Hw SPCE
    212     101    3  -0.847600  4.855417e+00 -5.775670e-01  9.431577e+00  # Ow SPCE
    213     101    2   0.423800  5.747705e+00 -3.391200e-01  9.814936e+00  # Hw SPCE
    214     102    2   0.423800 -1.196189e+01  6.944125e+00 -1.221756e+01  # Hw SPCE
    215     102    3  -0.847600 -1.270010e+01  6.349431e+00 -1.189915e+01  # Ow SPCE
    216     102    2   0.423800 -1.303913e+01  6.681155e+00 -1.101880e+01  # Hw SPCE
    217     103    2   0.423800  7.678438e+00 -3.371688e+00  2.666520e+00  # Hw SPCE
    218     103    3  -0.847600  8.657993e+00 -3.568742e+00  2.707019e+00  # Ow SPCE
    219     103    2   0.423800  8.872589e+00 -4.014901e+00  3.575863e+00  # Hw SPCE
    220     104    2   0.423800 -1.131213e+01  6.473029e+00  2.747459e+01  # Hw SPCE
    221     104    3  -0.847600 -1.075387e+01  5.847468e+00  2.801958e+01  # Ow SPCE
    222     104    2   0.423800 -1.122952e+01  5.633475e+00  2.887279e+01  # Hw SPCE
    223     105    2   0.423800 -1.139418e+00 -1.463197e+01  1.038310e+00  # Hw SPCE
    224     105    3  -0.847600 -5.040820e-01 -1.489641e+01  1.763858e+00  # Ow SPCE
    225     105    2   0.423800  3.410820e-01 -1.524292e+01  1.356881e+00  # Hw SPCE
    226     106    2   0.423800  8.587462e+00 -6.209130e-01  1.549204e+01  # Hw SPCE
    227     106    3  -0.847600  9.150413e+00  1.819960e-01  1.529602e+01  # Ow SPCE
    228     106    2   0.423800  1.008185e+01 -1.092150e-01  1.507779e+01  # Hw SPCE
    229     107    2   0.423800 -7.474058e+00  1.216974e+01 -2.808194e+01  # Hw SPCE
    230     107    3  -0.847600 -6.528455e+00  1.204724e+01 -2.838332e+01  # Ow SPCE
    231     107    2   0.423800 -6.394332e+00  1.110324e+01 -2.868477e+01  # Hw SPCE
    232     108    2   0.423800  9.431473e+00 -1.462329e+01 -1.329893e+01  # Hw SPCE
    233     108    3  -0.847600  8.713281e+00 -1.393781e+01 -1.317928e+01  # Ow SPCE
    234     108    2   0.423800  7.856341e+00 -1.439194e+01 -1.293553e+01  # Hw SPCE
    235     109    2   0.423800 -8.224472e+00  5.552294e+00 -2.623299e+00  # Hw SPCE
    236     109    3  -0.847600 -8.953463e+00  5.744921e+00 -3.280162e+00  # Ow SPCE
    237     109    2   0.423800 -9.620083e+00  6.364686e+00 -2.866026e+00  # Hw SPCE
    238     110    2   0.423800 -1.342345e+01  1.519984e+01 -1.835528e+01  # Hw SPCE
    239     110    3  -0.847600 -1.261625e+01  1.461116e+01 -1.839856e+01  # Ow SPCE
    240     110    2   0.423800 -1.179638e+01  1.517605e+01 -1.849198e+01  # Hw SPCE
    241     111    2   0.423800  1.451753e+01 -4.794202e+00  3.634367e+00  # Hw SPCE
    242     111    3  -0.847600  1.479012e+01 -5.753936e+00  3.566493e+00  # Ow SPCE
    243     111    2   0.423800  1.397562e+01 -6.325542e+00  3.467150e+00  # Hw SPCE
    244     112    2   0.423800  1.219119e+01 -2.369094e+00  2.829576e+01  # Hw SPCE
    245     112    3  -0.847600  1.249836e+01 -1.620961e+00  2.888393e+01  # Ow SPCE
    246     112    2   0.423800  1.227421e+01 -1.831492e+00  2.983547e+01  # Hw SPCE
    247     113    2   0.423800  9.469510e-01  3.465225e+00 -1.144465e+00  # Hw SPCE
    248     113    3  -0.847600  1.041704e+00  2.510619e+00 -1.426864e+00  # Ow SPCE
    249     113    2   0.423800  8.065440e-01  2.424515e+00 -2.394999e+00  # Hw SPCE
    250     114    2   0.423800  1.047084e+01  5.979653e+00 -1.698953e+01  # Hw SPCE
    251     114    3  -0.847600  1.088307e+01  5.328845e+00 -1.635194e+01  # Ow SPCE
    252     114    2   0.423800  1.041821e+01  4.446814e+00 -1.642894e+01  # Hw SPCE
    253     115    2   0.423800  8.413116e+00 -6.893046e+00 -1.066570e+01  # Hw SPCE
    254     115    3  -0.847600  9.300860e+00 -6.433588e+00 -1.069413e+01  # Ow SPCE
    255     115    2   0.423800  9.570346e+00 -6.287734e+00 -1.164603e+01  # Hw SPCE
    256     116    2   0.423800  3.591275e+00  5.390477e+00  9.226319e+00  # Hw SPCE
    257     116    3  -0.847600  4.529485e+00  5.728592e+00  9.300082e+00  # Ow SPCE
    258     116    2   0.423800  4.516386e+00  6.714984e+00  9.463968e+00  # Hw SPCE
    259     117    2   0.423800 -1.371946e+01  1.718050e-01 -2.970411e+01  # Hw SPCE
    260     117    3  -0.847600 -1.288073e+01 -3.394710e-01 -2.951668e+01  # Ow SPCE
    261     117    2   0.423800 -1.291424e+01 -1.219817e+00 -2.998983e+01  # Hw SPCE
    262     118    2   0.423800  1.494740e+01 -1.390941e+01 -1.102221e+01  # Hw SPCE
    263     118    3  -0.847600  1.419784e+01 -1.404384e+01 -1.167036e+01  # Ow SPCE
    264     118    2   0.423800  1.408081e+01 -1.502121e+01 -1.184656e+01  # Hw SPCE
    265     119    2   0.423800 -6.283898e+00  1.301391e+01  1.837979e+01  # Hw SPCE
    266     119    3  -0.847600 -6.788474e+00  1.215075e+01  1.836081e+01  # Ow SPCE
    267     119    2   0.423800 -6.143941e+00  1.138703e+01  1.839693e+01  # Hw SPCE
    268     120    2   0.423800 -1.421244e+00 -1.242861e+01 -9.234770e-01  # Hw SPCE
    269     120    3  -0.847600 -2.280046e+00 -1.213428e+01 -5.041560e-01  # Ow SPCE
    270     120    2   0.423800 -2.453341e+00 -1.267768e+01  3.172340e-01  # Hw SPCE
    271     121    2   0.423800  1.491442e+01  6.902232e+00  5.740714e+00  # Hw SPCE
    272     121    3  -0.847600  1.434628e+01  6.525258e+00  5.009209e+00  # Ow SPCE
    273     121    2   0.423800  1.352977e+01  6.104509e+00  5.404548e+00  # Hw SPCE
    274     122    2   0.423800 -1.213803e+01 -1.392015e+01  2.739310e+01  # Hw SPCE
    275     122    3  -0.847600 -1.164467e+01 -1.471781e+01  2.704621e+01  # Ow SPCE
    276     122    2   0.423800 -1.145104e+01 -1.459274e+01  2.607314e+01  # Hw SPCE
    277     123    2   0.423800  7.759021e+00 -1.129852e+01  2.048348e+01  # Hw SPCE
    278     123    3  -0.847600  6.761575e+00 -1.135279e+01  2.043707e+01  # Ow SPCE
    279     123    2   0.423800  6.381198e+00 -1.043177e+01  2.035315e+01  # Hw SPCE
    280     124    2   0.423800 -8.547402e+00  1.024007e+01  3.706835e+00  # Hw SPCE
    281     124    3  -0.847600 -8.016614e+00  1.057026e+01  2.926294e+00  # Ow SPCE
    282     124    2   0.423800 -7.113133e+00  1.086439e+01  3.238078e+00  # Hw SPCE
    283     125    2   0.423800 -7.440349e+00 -8.135809e+00 -2.472889e+01  # Hw SPCE
    284     125    3  -0.847600 -7.779931e+00 -7.893986e+00 -2.563785e+01  # Ow SPCE
    285     125    2   0.423800 -7.113070e+00 -7.307596e+00 -2.609768e+01  # Hw SPCE
    286     126    2   0.423800 -1.211196e+01 -1.314419e+01  1.214315e+01  # Hw SPCE
    287     126    3  -0.847600 -1.291127e+01 -1.255533e+01  1.202336e+01  # Ow SPCE
    288     126    2   0.423800 -1.323863e+01 -1.262536e+01  1.108105e+01  # Hw SPCE
    289     127    2   0.423800 -1.169542e+01  1.214991e+01  8.561411e+00  # Hw SPCE
    290     127    3  -0.847600 -1.079038e+01  1.177522e+01  8.360113e+00  # Ow SPCE
    291     127    2   0.423800 -1.010228e+01  1.225552e+01  8.904023e+00  # Hw SPCE
    292     128    2   0.423800  4.987510e+00  1.420155e+01 -2.897336e+01  # Hw SPCE
    293     128    3  -0.847600  4.282428e+00  1.371252e+01 -2.948688e+01  # Ow SPCE
    294     128    2   0.423800  4.639741e+00  1.282672e+01 -2.978299e+01  # Hw SPCE
    295     129    2   0.423800  5.160827e+00  1.305920e+01  1.128750e+01  # Hw SPCE
    296     129    3  -0.847600  5.408539e+00  1.379996e+01  1.066306e+01  # Ow SPCE
    297     129    2   0.423800  5.314549e+00  1.467759e+01  1.113310e+01  # Hw SPCE
    298     130    2   0.423800  1.204012e+01  1.456905e+01 -1.924137e+01  # Hw SPCE
    299     130    3  -0.847600  1.132856e+01  1.448884e+01 -1.854335e+01  # Ow SPCE
    300     130    2   0.423800  1.077976e+01  1.367159e+01 -1.871919e+01  # Hw SPCE
    301     131    2   0.423800 -5.079720e+00 -1.501101e+01  1.877502e+01  # Hw SPCE
    302     131    3  -0.847600 -5.351053e+00 -1.463827e+01  1.966240e+01  # Ow SPCE
    303     131    2   0.423800 -6.342897e+00 -1.451230e+01  1.968183e+01  # Hw SPCE
    304     132    2   0.423800  2.530788e+00  7.258980e+00  2.934448e+01  # Hw SPCE
    305     132    3  -0.847600  3.407200e+00  7.711856e+00  2.950820e+01  # Ow SPCE
    306     132    2   0.423800  3.246828e+00  8.610943e+00  2.991554e+01  # Hw SPCE
    307     133    2   0.423800  1.054243e+01 -5.384839e+00 -2.407660e+00  # Hw SPCE
    308     133    3  -0.847600  9.830520e+00 -4.682634e+00 -2.397958e+00  # Ow SPCE
    309     133    2   0.423800  9.158691e+00 -4.879212e+00 -3.112102e+00  # Hw SPCE
    310     134    2   0.423800 -1.252515e+01 -1.381796e+01  2.042270e+01  # Hw SPCE
    311     134    3  -0.847600 -1.292742e+01 -1.313293e+01  2.103008e+01  # Ow SPCE
    312     134    2   0.423800 -1.223667e+01 -1.281774e+01  2.168086e+01  # Hw SPCE
    313     135    2   0.423800  1.463274e+01 -6.641371e+00  1.752518e+01  # Hw SPCE
    314     135    3  -0.847600  1.449476e+01 -6.896194e+00  1.656808e+01  # Ow SPCE
    315     135    2   0.423800  1.357648e+01 -6.624683e+00  1.627992e+01  # Hw SPCE
    316     136    2   0.423800  5.574124e+00 -1.338429e+01 -2.744105e+01  # Hw SPCE
    317     136    3  -0.847600  4.978238e+00 -1.418702e+01 -2.741756e+01  # Ow SPCE
    318     136    2   0.423800  5.289369e+00 -1.481227e+01 -2.670184e+01  # Hw SPCE
    319     137    2   0.423800 -4.918157e+00 -7.093080e+00 -1.610626e+00  # Hw SPCE
    320     137    3  -0.847600 -4.882838e+00 -8.087730e+00 -1.513552e+00  # Ow SPCE
    321     137    2   0.423800 -5.102340e+00 -8.338617e+00 -5.707500e-01  # Hw SPCE
    322     138    2   0.423800 -3.023107e+00 -1.417602e+00 -2.741587e+01  # Hw SPCE
    323     138    3  -0.847600 -2.568138e+00 -5.682840e-01 -2.768357e+01  # Ow SPCE
    324     138    2   0.423800 -1.914403e+00 -3.026940e-01 -2.697498e+01  # Hw SPCE
    325     139    2   0.423800 -1.198579e+01  1.471432e+01 -3.549690e-01  # Hw SPCE
    326     139    3  -0.847600 -1.151797e+01  1.444208e+01  4.858810e-01  # Ow SPCE
    327     139    2   0.423800 -1.067672e+01  1.497334e+01  5.862370e-01  # Hw SPCE
    328     140    2   0.423800  6.208360e+00 -5.549545e+00 -2.974015e+01  # Hw SPCE
    329     140    3  -0.847600  6.091755e+00 -6.524134e+00 -2.954889e+01  # Ow SPCE
    330     140    2   0.423800  5.620113e+00 -6.638112e+00 -2.867450e+01  # Hw SPCE
    331     141    2   0.423800 -1.005439e+01  7.391675e+00 -1.368623e+01  # Hw SPCE
    332     141    3  -0.847600 -9.385573e+00  7.170680e+00 -1.439604e+01  # Ow SPCE
    333     141    2   0.423800 -8.584173e+00  7.760038e+00 -1.429400e+01  # Hw SPCE
    334     142    2   0.423800  1.167057e+01 -1.406097e+01 -9.565331e+00  # Hw SPCE
    335     142    3  -0.847600  1.214953e+01 -1.493880e+01 -9.566058e+00  # Ow SPCE
    336     142    2   0.423800  1.313681e+01 -1.477983e+01 -9.568391e+00  # Hw SPCE
    337     143    2   0.423800 -3.856710e+00 -1.463317e+00  6.469727e+00  # Hw SPCE
    338     143    3  -0.847600 -2.875846e+00 -1.607217e+00  6.600868e+00  # Ow SPCE
    339     143    2   0.423800 -2.703202e+00 -1.885674e+00  7.545672e+00  # Hw SPCE
    340     144    2   0.423800 -1.035433e+00 -7.376169e+00 -2.979217e+01  # Hw SPCE
    341     144    3  -0.847600 -4.367160e-01 -7.054192e+00 -2.905878e+01  # Ow SPCE
    342     144    2   0.423800 -6.060160e-01 -6.082742e+00 -2.889258e+01  # Hw SPCE
    343     145    2   0.423800 -1.115672e+00  1.134971e+01 -2.585336e+01  # Hw SPCE
    344     145    3  -0.847600 -1.968446e+00  1.184949e+01 -2.570173e+01  # Ow SPCE
    345     145    2   0.423800 -2.714985e+00  1.119950e+01 -2.555966e+01  # Hw SPCE
    346     146    2   0.423800 -1.056756e+01  1.255447e+01 -2.079031e+01  # Hw SPCE
    347     146    3  -0.847600 -1.120703e+01  1.312700e+01 -2.027721e+01  # Ow SPCE
    348     146    2   0.423800 -1.111086e+01  1.294038e+01 -1.929949e+01  # Hw SPCE
    349     147    2   0.423800  7.051300e+00 -6.213012e+00 -1.914121e+01  # Hw SPCE