ITEM: TIMESTEP
2000
ITEM: NUMBER OF ATOMS
9442
ITEM: BOX BOUNDS pp pp ff
-1.7153631884999999e+01 1.8003017117999999e+01
-1.7855467918999999e+01 1.7553981017000002e+01
-3.4618715923000003e+01 3.4618715923000003e+01
ITEM: ATOMS id type x y z q 
6997 2 -7.37176 -12.7135 -0.498814 0.4238 
3210 2 -13.9943 -13.1958 -0.815029 0.4238 
1794 2 -15.8515 -17.3172 -28.3077 0.4238 
3279 2 -9.51186 -15.0632 -27.4044 0.4238 
3511 2 -8.62102 -11.4859 -26.5858 0.4238 
3512 3 -9.09037 -10.8245 -27.1674 -0.8476 
225 2 -1.11303 -17.5203 -0.508338 0.4238 
4447 2 -11.1739 -16.6741 -27.594 0.4238 
4448 3 -10.2276 -16.4431 -27.172 -0.8476 
3807 2 -1.60865 -1.00942 -13.2178 0.4238 
4741 2 -12.8343 -15.6615 -27.4515 0.4238 
4742 3 -13.1981 -14.7217 -27.2526 -0.8476 
4743 2 -14.2093 -14.7684 -27.4159 0.4238 
7651 5 -15.4256 -16.978 -34.1187 0 
7652 5 -16.6536 -16.269 -34.1187 0 
7653 5 -16.6536 -14.851 -34.1187 0 
7654 5 -15.4256 -14.142 -34.1187 0 
7655 5 -12.9696 -16.978 -34.1187 0 
7656 5 -14.1976 -16.269 -34.1187 0 
7657 5 -14.1976 -14.851 -34.1187 0 
7658 5 -12.9696 -14.142 -34.1187 0 
7659 5 -10.5135 -16.978 -34.1187 0 
7660 5 -11.7415 -16.269 -34.1187 0 
7661 5 -11.7415 -14.851 -34.1187 0 
7662 5 -10.5135 -14.142 -34.1187 0 
7664 5 -9.28549 -16.269 -34.1187 0 
7665 5 -9.28549 -14.851 -34.1187 0 
7707 5 -15.4256 -12.724 -34.1187 0 
7708 5 -16.6536 -12.015 -34.1187 0 
7709 5 -16.6536 -10.597 -34.1187 0 
7710 5 -15.4256 -9.88802 -34.1187 0 
7711 5 -12.9696 -12.724 -34.1187 0 
7712 5 -14.1976 -12.015 -34.1187 0 
7713 5 -14.1976 -10.597 -34.1187 0 
7714 5 -12.9696 -9.88802 -34.1187 0 
7715 5 -10.5135 -12.724 -34.1187 0 
7716 5 -11.7415 -12.015 -34.1187 0 
7717 5 -11.7415 -10.597 -34.1187 0 
7718 5 -10.5135 -9.88802 -34.1187 0 
7720 5 -9.28549 -12.015 -34.1187 0 
7721 5 -9.28549 -10.597 -34.1187 0 
8099 5 -15.4256 -15.56 -30.7687 0 
8100 5 -16.6536 -14.851 -30.7687 0 
8101 5 -16.6536 -13.433 -30.7687 0 
8102 5 -15.4256 -12.724 -30.7687 0 
8103 5 -12.9696 -15.56 -30.7687 0 
8104 5 -14.1976 -14.851 -30.7687 0 
8105 5 -14.1976 -13.433 -30.7687 0 
8106 5 -12.9696 -12.724 -30.7687 0 
8107 5 -10.5135 -15.56 -30.7687 0 
8108 5 -11.7415 -14.851 -30.7687 0 
8109 5 -11.7415 -13.433 -30.7687 0 
8110 5 -10.5135 -12.724 -30.7687 0 
8112 5 -9.28549 -14.851 -30.7687 0 
8113 5 -9.28549 -13.433 -30.7687 0 
8155 5 -15.4256 -11.306 -30.7687 0 
8156 5 -16.6536 -10.597 -30.7687 0 
8157 5 -16.6536 -9.17902 -30.7687 0 
8159 5 -12.9696 -11.306 -30.7687 0 
8160 5 -14.1976 -10.597 -30.7687 0 
8161 5 -14.1976 -9.17902 -30.7687 0 
8163 5 -10.5135 -11.306 -30.7687 0 
8164 5 -11.7415 -10.597 -30.7687 0 
8165 5 -11.7415 -9.17902 -30.7687 0 
8168 5 -9.28549 -10.597 -30.7687 0 
8169 5 -9.28549 -9.17902 -30.7687 0 
3277 2 -9.97908 -13.5803 -27.978 0.4238 
3278 3 -9.16759 -14.1272 -27.7163 -0.8476 
454 2 -15.2543 -9.63663 -27.706 0.4238 
3001 2 -12.1635 -11.8588 -28.0152 0.4238 
3002 3 -11.4425 -12.3642 -27.5353 -0.8476 
3003 2 -12.0187 -13.2126 -27.3097 0.4238 
3513 2 -10.0229 -11.1551 -27.2749 0.4238 
3893 3 -14.0341 -11.1239 -27.0721 -0.8476 
3894 2 -14.1557 -10.4374 -26.3294 0.4238 
264 2 -16.8486 -16.8997 -9.92548 0.4238 
3892 2 -14.7982 -11.8377 -26.849 0.4238 
5849 3 -16.2872 -12.2901 -26.3851 -0.8476 
683 3 -15.8468 -14.7135 -27.4709 -0.8476 
5438 3 0.264219 -3.95454 -25.1403 -0.8476 
145 2 -10.2971 -17.4985 -6.04834 0.4238 
1930 2 -3.7144 -13.8072 -26.2095 0.4238 
1931 3 -3.91119 -14.377 -27.0051 -0.8476 
2017 2 -3.24089 -9.96537 -27.1228 0.4238 
2018 3 -3.37379 -9.19362 -27.7801 -0.8476 
2019 2 -2.36234 -8.88194 -27.9041 0.4238 
13 1 -17.046 -3.47953 -10.3819 1 
4279 2 -6.76462 -12.3421 -26.8023 0.4238 
4280 3 -5.94351 -11.875 -27.2072 -0.8476 
4281 2 -6.20365 -11.7737 -28.167 0.4238 
5560 2 -6.82085 -15.6248 -27.7473 0.4238 
5561 3 -5.91288 -15.9375 -27.7235 -0.8476 
5562 2 -5.33299 -15.1729 -27.4865 0.4238 
5289 2 -16.7094 -17.2928 -19.93 0.4238 
5205 2 -5.17193 -0.715734 -1.54617 0.4238 
7663 5 -8.05746 -16.978 -34.1187 0 
7666 5 -8.05746 -14.142 -34.1187 0 
7667 5 -5.60142 -16.978 -34.1187 0 
7668 5 -6.82944 -16.269 -34.1187 0 
7669 5 -6.82944 -14.851 -34.1187 0 
7670 5 -5.60142 -14.142 -34.1187 0 
7671 5 -3.14537 -16.978 -34.1187 0 
7672 5 -4.37339 -16.269 -34.1187 0 
7673 5 -4.37339 -14.851 -34.1187 0 
7674 5 -3.14537 -14.142 -34.1187 0 
7675 5 -0.68932 -16.978 -34.1187 0 
7676 5 -1.91734 -16.269 -34.1187 0 
7677 5 -1.91734 -14.851 -34.1187 0 
7678 5 -0.68932 -14.142 -34.1187 0 
7719 5 -8.05746 -12.724 -34.1187 0 
7722 5 -8.05746 -9.88802 -34.1187 0 
7723 5 -5.60142 -12.724 -34.1187 0 
7724 5 -6.82944 -12.015 -34.1187 0 
7725 5 -6.82944 -10.597 -34.1187 0 
7726 5 -5.60142 -9.88802 -34.1187 0 
7727 5 -3.14537 -12.724 -34.1187 0 
7728 5 -4.37339 -12.015 -34.1187 0 
7729 5 -4.37339 -10.597 -34.1187 0 
7730 5 -3.14537 -9.88802 -34.1187 0 
7731 5 -0.68932 -12.724 -34.1187 0 
7732 5 -1.91734 -12.015 -34.1187 0 
7733 5 -1.91734 -10.597 -34.1187 0 
7734 5 -0.68932 -9.88802 -34.1187 0 
8111 5 -8.05746 -15.56 -30.7687 0 
8114 5 -8.05746 -12.724 -30.7687 0 
8115 5 -5.60142 -15.56 -30.7687 0 
8116 5 -6.82944 -14.851 -30.7687 0 
8117 5 -6.82944 -13.433 -30.7687 0 
8118 5 -5.60142 -12.724 -30.7687 0 
8119 5 -3.14537 -15.56 -30.7687 0 
8120 5 -4.37339 -14.851 -30.7687 0 
8121 5 -4.37339 -13.433 -30.7687 0 
8122 5 -3.14537 -12.724 -30.7687 0 
8123 5 -0.68932 -15.56 -30.7687 0 
8124 5 -1.91734 -14.851 -30.7687 0 
8125 5 -1.91734 -13.433 -30.7687 0 
8126 5 -0.68932 -12.724 -30.7687 0 
8167 5 -8.05746 -11.306 -30.7687 0 
8171 5 -5.60142 -11.306 -30.7687 0 
8172 5 -6.82944 -10.597 -30.7687 0 
8173 5 -6.82944 -9.17902 -30.7687 0 
8175 5 -3.14537 -11.306 -30.7687 0 
8176 5 -4.37339 -10.597 -30.7687 0 
8177 5 -4.37339 -9.17902 -30.7687 0 
8179 5 -0.68932 -11.306 -30.7687 0 
8180 5 -1.91734 -10.597 -30.7687 0 
8181 5 -1.91734 -9.17902 -30.7687 0 
2504 3 -3.2906 -11.4735 -26.0888 -0.8476 
2505 2 -3.26779 -10.8542 -25.2756 0.4238 
1126 2 -1.47566 -16.6609 -26.7835 0.4238 
2503 2 -4.25213 -11.6451 -26.4743 0.4238 
4991 3 -0.534757 -17.262 -22.9342 -0.8476 
4474 2 -16.6851 -11.1962 -5.40353 0.4238 
2437 2 -6.81477 -4.11057 -0.177643 0.4238 
4576 2 -14.2224 -9.5424 -0.554594 0.4238 
4593 2 -13.4572 -0.955055 -0.172988 0.4238 
7262 3 -11.5736 -2.21249 -0.251801 -0.8476 
455 3 -15.7183 -8.83684 -27.3143 -0.8476 
1186 2 -13.6816 -5.09264 -27.2461 0.4238 
1187 3 -13.6586 -4.32569 -26.5723 -0.8476 
1188 2 -14.591 -3.80515 -26.6278 0.4238 
2940 2 -7.91669 -7.43385 -27.5258 0.4238 
3793 2 -16.211 -2.39735 -26.3086 0.4238 
3794 3 -15.8639 -3.11311 -26.7858 -0.8476 
3795 2 -16.7003 -3.425 -27.2405 0.4238 
6994 2 -13.664 -7.95187 -26.7261 0.4238 
6995 3 -12.94 -7.51685 -27.3013 -0.8476 
6996 2 -13.4076 -7.51685 -28.1779 0.4238 
7763 5 -15.4256 -8.47002 -34.1187 0 
7764 5 -16.6536 -7.76102 -34.1187 0 
7765 5 -16.6536 -6.34302 -34.1187 0 
7766 5 -15.4256 -5.63402 -34.1187 0 
7767 5 -12.9696 -8.47002 -34.1187 0 
7768 5 -14.1976 -7.76102 -34.1187 0 
7769 5 -14.1976 -6.34302 -34.1187 0 
7770 5 -12.9696 -5.63402 -34.1187 0 
7771 5 -10.5135 -8.47002 -34.1187 0 
7772 5 -11.7415 -7.76102 -34.1187 0 
7773 5 -11.7415 -6.34302 -34.1187 0 
7774 5 -10.5135 -5.63402 -34.1187 0 
7776 5 -9.28549 -7.76102 -34.1187 0 
7777 5 -9.28549 -6.34302 -34.1187 0 
7819 5 -15.4256 -4.21602 -34.1187 0 
7820 5 -16.6536 -3.50702 -34.1187 0 
7821 5 -16.6536 -2.08902 -34.1187 0 
7822 5 -15.4256 -1.38002 -34.1187 0 
7823 5 -12.9696 -4.21602 -34.1187 0 
7824 5 -14.1976 -3.50702 -34.1187 0 
7825 5 -14.1976 -2.08902 -34.1187 0 
7826 5 -12.9696 -1.38002 -34.1187 0 
7827 5 -10.5135 -4.21602 -34.1187 0 
7828 5 -11.7415 -3.50702 -34.1187 0 
7829 5 -11.7415 -2.08902 -34.1187 0 
7830 5 -10.5135 -1.38002 -34.1187 0 
7832 5 -9.28549 -3.50702 -34.1187 0 
7833 5 -9.28549 -2.08902 -34.1187 0 
8158 5 -15.4256 -8.47002 -30.7687 0 
8162 5 -12.9696 -8.47002 -30.7687 0 
8166 5 -10.5135 -8.47002 -30.7687 0 
8211 5 -15.4256 -7.05202 -30.7687 0 
8212 5 -16.6536 -6.34302 -30.7687 0 
8213 5 -16.6536 -4.92502 -30.7687 0 
8214 5 -15.4256 -4.21602 -30.7687 0 
8215 5 -12.9696 -7.05202 -30.7687 0 
8216 5 -14.1976 -6.34302 -30.7687 0 
8217 5 -14.1976 -4.92502 -30.7687 0 
8218 5 -12.9696 -4.21602 -30.7687 0 
8219 5 -10.5135 -7.05202 -30.7687 0 
8220 5 -11.7415 -6.34302 -30.7687 0 
8221 5 -11.7415 -4.92502 -30.7687 0 
8222 5 -10.5135 -4.21602 -30.7687 0 
8224 5 -9.28549 -6.34302 -30.7687 0 
8225 5 -9.28549 -4.92502 -30.7687 0 
8267 5 -15.4256 -2.79802 -30.7687 0 
8268 5 -16.6536 -2.08902 -30.7687 0 
8269 5 -16.6536 -0.671021 -30.7687 0 
8271 5 -12.9696 -2.79802 -30.7687 0 
8272 5 -14.1976 -2.08902 -30.7687 0 
8273 5 -14.1976 -0.671021 -30.7687 0 
8275 5 -10.5135 -2.79802 -30.7687 0 
8276 5 -11.7415 -2.08902 -30.7687 0 
8277 5 -11.7415 -0.671021 -30.7687 0 
8280 5 -9.28549 -2.08902 -30.7687 0 
8281 5 -9.28549 -0.671021 -30.7687 0 
4153 2 -9.48407 -5.79101 -27.5475 0.4238 
4154 3 -8.47241 -5.68871 -27.7586 -0.8476 
4155 2 -8.51497 -4.6676 -27.8937 0.4238 
3483 2 -12.4284 -3.08735 -27.143 0.4238 
7234 2 -9.51589 -2.62808 -28.4201 0.4238 
2076 2 -16.9533 -17.1619 -24.1053 0.4238 
2733 2 -5.26489 -17.5546 -9.74675 0.4238 
3482 3 -12.1136 -2.24616 -27.4669 -0.8476 
5191 2 -9.75245 -17.1481 -17.0156 0.4238 
3481 2 -12.9677 -1.79788 -27.6398 0.4238 
3141 2 -5.00474 -0.418475 -20.0525 0.4238 
2361 2 -5.39144 -17.8322 -27.8978 0.4238 
5848 2 -16.4587 -12.8416 -25.5468 0.4238 
2939 3 -7.52073 -8.27237 -27.0494 -0.8476 
322 2 -5.69159 -1.38908 -26.1241 0.4238 
2773 2 -2.77959 -5.64911 -26.3639 0.4238 
2774 3 -2.77324 -5.12217 -27.2312 -0.8476 
2775 2 -3.5735 -5.54349 -27.7056 0.4238 
3746 3 -2.96018 -2.4604 -27.1023 -0.8476 
3747 2 -3.9545 -2.20855 -27.28 0.4238 
7424 3 -0.236997 -5.72592 -27.1929 -0.8476 
6323 3 -4.6867 -7.13628 -26.3661 -0.8476 
6324 2 -4.60941 -7.9388 -27.014 0.4238 
7235 3 -8.84727 -3.07473 -27.843 -0.8476 
7236 2 -9.03139 -2.52857 -26.9317 0.4238 
7775 5 -8.05746 -8.47002 -34.1187 0 
7778 5 -8.05746 -5.63402 -34.1187 0 
7779 5 -5.60142 -8.47002 -34.1187 0 
7780 5 -6.82944 -7.76102 -34.1187 0 
7781 5 -6.82944 -6.34302 -34.1187 0 
7782 5 -5.60142 -5.63402 -34.1187 0 
7783 5 -3.14537 -8.47002 -34.1187 0 
7784 5 -4.37339 -7.76102 -34.1187 0 
7785 5 -4.37339 -6.34302 -34.1187 0 
7786 5 -3.14537 -5.63402 -34.1187 0 
7787 5 -0.68932 -8.47002 -34.1187 0 
7788 5 -1.91734 -7.76102 -34.1187 0 
7789 5 -1.91734 -6.34302 -34.1187 0 
7790 5 -0.68932 -5.63402 -34.1187 0 
7831 5 -8.05746 -4.21602 -34.1187 0 
7834 5 -8.05746 -1.38002 -34.1187 0 
7835 5 -5.60142 -4.21602 -34.1187 0 
7836 5 -6.82944 -3.50702 -34.1187 0 
7837 5 -6.82944 -2.08902 -34.1187 0 
7838 5 -5.60142 -1.38002 -34.1187 0 
7839 5 -3.14537 -4.21602 -34.1187 0 
7840 5 -4.37339 -3.50702 -34.1187 0 
7841 5 -4.37339 -2.08902 -34.1187 0 
7842 5 -3.14537 -1.38002 -34.1187 0 
7843 5 -0.68932 -4.21602 -34.1187 0 
7844 5 -1.91734 -3.50702 -34.1187 0 
7845 5 -1.91734 -2.08902 -34.1187 0 
7846 5 -0.68932 -1.38002 -34.1187 0 
8170 5 -8.05746 -8.47002 -30.7687 0 
8174 5 -5.60142 -8.47002 -30.7687 0 
8178 5 -3.14537 -8.47002 -30.7687 0 
8182 5 -0.68932 -8.47002 -30.7687 0 
8223 5 -8.05746 -7.05202 -30.7687 0 
8226 5 -8.05746 -4.21602 -30.7687 0 
8227 5 -5.60142 -7.05202 -30.7687 0 
8228 5 -6.82944 -6.34302 -30.7687 0 
8229 5 -6.82944 -4.92502 -30.7687 0 
8230 5 -5.60142 -4.21602 -30.7687 0 
8231 5 -3.14537 -7.05202 -30.7687 0 
8232 5 -4.37339 -6.34302 -30.7687 0 
8233 5 -4.37339 -4.92502 -30.7687 0 
8234 5 -3.14537 -4.21602 -30.7687 0 
8235 5 -0.68932 -7.05202 -30.7687 0 
8236 5 -1.91734 -6.34302 -30.7687 0 
8237 5 -1.91734 -4.92502 -30.7687 0 
8238 5 -0.68932 -4.21602 -30.7687 0 
8279 5 -8.05746 -2.79802 -30.7687 0 
8283 5 -5.60142 -2.79802 -30.7687 0 
8284 5 -6.82944 -2.08902 -30.7687 0 
8285 5 -6.82944 -0.671021 -30.7687 0 
8287 5 -3.14537 -2.79802 -30.7687 0 
8288 5 -4.37339 -2.08902 -30.7687 0 
8289 5 -4.37339 -0.671021 -30.7687 0 
8291 5 -0.68932 -2.79802 -30.7687 0 
8292 5 -1.91734 -2.08902 -30.7687 0 
8293 5 -1.91734 -0.671021 -30.7687 0 
7423 2 -1.21647 -5.3876 -27.3693 0.4238 
342 2 -0.181192 -7.94595 -27.2295 0.4238 
7425 2 -0.133021 -5.17755 -26.354 0.4238 
341 3 -0.844136 -8.71271 -27.2308 -0.8476 
180 2 -1.17494 -2.38587 -28.0977 0.4238 
3745 2 -2.87272 -3.50621 -27.1241 0.4238 
762 2 -9.07582 -15.7245 -23.1293 0.4238 
3292 2 -14.749 -15.5722 -24.5397 0.4238 
3293 3 -14.6543 -14.57 -24.4471 -0.8476 
4983 2 -11.331 -17.1189 -23.0148 0.4238 
5881 2 0.150919 -4.45471 -0.620235 0.4238 
6295 2 -12.1594 -14.0989 -24.1759 0.4238 
6296 3 -11.8829 -14.8492 -24.7931 -0.8476 
6297 2 -12.7426 -14.7547 -25.3397 0.4238 
6871 2 -9.73679 -12.4256 -25.0837 0.4238 
6872 3 -10.6544 -12.021 -24.9242 -0.8476 
6873 2 -11.1755 -12.1668 -25.805 0.4238 
760 2 -8.23433 -16.6808 -22.0611 0.4238 
761 3 -8.53565 -15.705 -22.2807 -0.8476 
6632 3 -12.9157 -11.8743 -23.0315 -0.8476 
6633 2 -12.9896 -10.8762 -22.8063 0.4238 
4065 2 -15.8604 -9.40514 -23.2587 0.4238 
424 2 -12.79 -15.7763 -20.8918 0.4238 
425 3 -13.8025 -15.9277 -20.94 -0.8476 
426 2 -14.1297 -14.9955 -21.0909 0.4238 
659 3 -17.1336 -9.24043 -24.7483 -0.8476 
1438 2 -12.0676 -12.3645 -21.5049 0.4238 
1439 3 -11.6168 -12.6293 -20.6438 -0.8476 
1440 2 -11.4629 -13.6414 -20.7099 0.4238 
2254 2 -16.1707 -13.7817 -18.0571 0.4238 
2255 3 -16.483 -13.9727 -17.1065 -0.8476 
2256 2 -16.5679 -13.0133 -16.7823 0.4238 
2730 2 -14.57 -10.5256 -18.6761 0.4238 
2770 2 -16.3502 -12.0259 -19.435 0.4238 
2771 3 -16.1533 -13.0357 -19.5075 -0.8476 
2772 2 -15.7618 -13.1164 -20.4274 0.4238 
4987 2 -10.2721 -10.4034 -24.0811 0.4238 
4988 3 -9.73789 -9.47065 -24.0907 -0.8476 
4989 2 -8.7504 -9.68672 -24.233 0.4238 
6970 2 -16.9283 -11.4209 -12.8432 0.4238 
5159 3 -14.2949 -17.4832 -24.7395 -0.8476 
607 2 -16.245 -0.234668 -24.9217 0.4238 
5632 2 -14.1552 -12.7436 -22.2614 0.4238 
5633 3 -14.8959 -13.4017 -22.0349 -0.8476 
5634 2 -15.0968 -14.0228 -22.8292 0.4238 
2853 2 -10.9843 -17.6582 -0.393802 0.4238 
6422 3 -10.7718 -17.2527 -19.4165 -0.8476 
6423 2 -10.2165 -16.5725 -18.9057 0.4238 
6912 2 -9.9873 -14.979 -21.3958 0.4238 
2748 2 -8.48039 -13.7309 -26.3435 0.4238 
5494 2 -6.8346 -11.3283 -21.8727 0.4238 
5495 3 -7.4494 -11.9199 -21.3709 -0.8476 
5496 2 -8.38528 -11.4872 -21.4174 0.4238 
6814 2 -10.6623 -10.0503 -21.705 0.4238 
6815 3 -9.94924 -10.7067 -21.4172 -0.8476 
6816 2 -10.4667 -11.4058 -20.8734 0.4238 
6910 2 -10.7856 -15.9669 -20.4492 0.4238 
6911 3 -10.9157 -15.0596 -20.9354 -0.8476 
3832 2 -16.6566 -9.93066 -17.9827 0.4238 
3833 3 -16.5435 -10.482 -18.8455 -0.8476 
2391 2 0.00598483 -6.72667 -4.9756 0.4238 
6631 2 -12.2273 -11.8869 -23.766 0.4238 
6356 3 -9.86697 -17.7352 -11.8361 -0.8476 
4105 2 -16.1331 -17.8136 -3.15146 0.4238 
5639 3 -13.2289 -15.6746 -0.00410822 -0.8476 
3392 3 -10.019 -16.3687 -24.4734 -0.8476 
3676 2 -13.8116 -3.83483 -1.50742 0.4238 
608 3 -16.3274 -0.684189 -25.8699 -0.8476 
4880 3 -15.9708 -17.6927 -21.4658 -0.8476 
1044 2 -16.2034 -6.00799 -24.9641 0.4238 
178 2 0.15172 -3.05974 -27.5418 0.4238 
3294 2 -15.4441 -14.1656 -24.8773 0.4238 
4879 2 -15.0322 -17.3943 -21.1786 0.4238 
4982 3 -12.2466 -17.5718 -22.8852 -0.8476 
6030 2 -16.6732 -5.03024 -13.2051 0.4238 
3391 2 -10.9151 -15.8229 -24.6792 0.4238 
4981 2 -12.7661 -17.1073 -22.1452 0.4238 
5893 2 0.292509 -0.68551 -27.8533 0.4238 
6701 3 -7.19653 -17.5965 -24.7194 -0.8476 
5450 3 -7.77895 -8.54246 -0.358356 -0.8476 
7112 3 0.163022 -16.4879 -10.9082 -0.8476 
1421 3 0.0389561 -1.09131 -7.60588 -0.8476 
1648 2 -15.6935 -11.1302 -1.22883 0.4238 
1932 2 -3.0218 -14.6085 -27.3471 0.4238 
2746 2 -7.51159 -13.6901 -25.0172 0.4238 
2747 3 -8.10382 -13.0861 -25.5766 -0.8476 
6600 2 -10.3309 -11.4302 -2.21116 0.4238 
3223 2 0.0266684 -15.0857 -28.0592 0.4238 
3224 3 -0.856594 -15.1078 -27.4798 -0.8476 
3225 2 -0.753033 -14.4011 -26.7643 0.4238 
6702 2 -8.01241 -17.0112 -24.5518 0.4238 
4836 2 -3.2206 -15.4754 -22.4937 0.4238 
285 2 -6.53276 -10.4924 -25.6627 0.4238 
625 2 -7.13969 -13.2751 -20.9509 0.4238 
626 3 -6.957 -14.1975 -20.5349 -0.8476 
627 2 -7.1138 -14.5774 -21.4614 0.4238 
1154 3 -0.790837 -10.1706 -19.8526 -0.8476 
1527 2 -3.66602 -16.7384 -24.3702 0.4238 
1957 2 -3.93899 -10.4195 -19.0441 0.4238 
1958 3 -3.90632 -9.9538 -19.9526 -0.8476 
1959 2 -3.70764 -10.6009 -20.6994 0.4238 
2095 2 -5.77753 -15.5253 -24.9751 0.4238 
2096 3 -6.19663 -14.6734 -24.6182 -0.8476 
2097 2 -5.66532 -14.1173 -23.9245 0.4238 
2326 2 -1.64535 -14.5471 -18.5372 0.4238 
2327 3 -1.54344 -15.5625 -18.6469 -0.8476 
2328 2 -2.19755 -15.8917 -17.912 0.4238 
2662 2 -0.929492 -13.6827 -21.762 0.4238 
2663 3 -1.43008 -13.1692 -22.4544 -0.8476 
2664 2 -0.891815 -13.3172 -23.3221 0.4238 
2917 2 -3.32657 -14.5438 -19.9517 0.4238 
2918 3 -3.89129 -13.7018 -19.9898 -0.8476 
2919 2 -4.82408 -13.9596 -20.3079 0.4238 
3005 3 -3.32908 -9.53962 -24.2423 -0.8476 
3006 2 -4.34746 -9.43678 -24.1836 0.4238 
3754 2 -1.46615 -11.7999 -19.0499 0.4238 
3755 3 -1.86093 -12.5691 -18.4949 -0.8476 
3756 2 -2.84359 -12.6072 -18.7902 0.4238 
4135 2 -5.49779 -9.34205 -22.0562 0.4238 
4136 3 -5.85439 -10.1967 -22.5262 -0.8476 
4137 2 -6.25337 -9.87524 -23.419 0.4238 
2236 2 -4.15224 -16.6213 -19.9374 0.4238 
6388 2 -5.35945 -12.1947 -22.8 0.4238 
6389 3 -4.91462 -13.0913 -22.9354 -0.8476 
6390 2 -4.12161 -13.1256 -22.267 0.4238 
6547 2 -1.78035 -10.5638 -21.532 0.4238 
6548 3 -2.55384 -10.8593 -22.1123 -0.8476 
6549 2 -2.18309 -11.7758 -22.3836 0.4238 
1153 2 -0.929421 -9.15597 -19.9624 0.4238 
4834 2 -2.16599 -14.7892 -23.3997 0.4238 
648 2 -0.278002 -5.9308 -9.0052 0.4238 
3668 3 -1.42377 -13.1286 -25.4684 -0.8476 
1876 2 -12.5464 -0.75242 -7.5033 0.4238 
6598 2 -9.44511 -11.2892 -0.793979 0.4238 
1708 2 -2.40546 -8.26632 -24.9691 0.4238 
3004 2 -3.0409 -9.90084 -23.2901 0.4238 
6877 2 -5.46631 -9.21964 -19.6632 0.4238 
2237 3 -3.90142 -16.5258 -20.9332 -0.8476 
5255 3 -7.46378 -11.9208 -18.0766 -0.8476 
864 2 0.272116 -5.66038 -11.1796 0.4238 
5256 2 -7.37524 -11.9566 -19.0881 0.4238 
2892 2 -17.0232 -13.5645 -10.4437 0.4238 
4835 3 -2.77318 -15.5682 -23.3806 -0.8476 
1155 2 0.0776378 -10.3627 -20.3079 0.4238 
375 2 -5.81008 -16.2406 -18.6752 0.4238 
3667 2 -2.26392 -12.5718 -25.6353 0.4238 
1193 3 -12.7055 -17.4987 -27.6305 -0.8476 
1127 3 -1.66757 -17.6694 -27.0411 -0.8476 
4986 2 -12.6025 -1.09913 -23.1729 0.4238 
2390 3 0.0960283 -7.10492 -5.92166 -0.8476 
1964 3 -13.5795 -9.07508 -25.1567 -0.8476 
3207 2 -10.3376 -2.16073 -17.0561 0.4238 
3139 2 -4.63394 -0.428402 -21.6592 0.4238 
456 2 -16.1247 -9.20085 -26.5009 0.4238 
1963 2 -13.963 -9.14524 -24.2307 0.4238 
2332 2 -12.2839 -3.7552 -23.6478 0.4238 
2333 3 -13.1051 -4.35393 -23.5838 -0.8476 
2334 2 -13.3687 -4.40813 -24.5456 0.4238 
2938 2 -8.14759 -9.0616 -27.2404 0.4238 
5801 3 -10.7322 -3.65893 -25.2897 -0.8476 
1726 2 -9.73869 -1.28481 -18.9828 0.4238 
5802 2 -10.701 -4.49614 -25.7757 0.4238 
2868 2 -15.0911 -0.740508 -22.0429 0.4238 
859 2 -11.4691 -7.00469 -22.7172 0.4238 
860 3 -10.7426 -7.03457 -23.4709 -0.8476 
861 2 -10.318 -7.93327 -23.6477 0.4238 
1285 2 -14.5318 -3.4281 -20.9504 0.4238 
1286 3 -13.5654 -3.41858 -20.7282 -0.8476 
1287 2 -13.1133 -2.66648 -21.2026 0.4238 
1965 2 -12.6868 -8.66912 -24.8614 0.4238 
2719 2 -15.1865 -7.26748 -18.524 0.4238 
3088 2 -12.4611 -8.43023 -22.1636 0.4238 
3089 3 -12.9838 -9.33382 -22.2688 -0.8476 
3090 2 -13.8999 -9.22228 -21.7906 0.4238 
3196 2 -11.8939 -5.48897 -18.6893 0.4238 
3197 3 -11.4948 -6.34408 -19.0893 -0.8476 
3198 2 -10.5053 -6.14501 -19.2464 0.4238 
3394 2 -14.1669 -5.87631 -22.9572 0.4238 
3395 3 -15.0927 -6.27356 -23.0592 -0.8476 
3396 2 -15.7075 -5.57852 -22.6407 0.4238 
3520 2 -15.9716 -5.96368 -20.2733 0.4238 
3521 3 -15.6703 -6.86256 -19.9659 -0.8476 
3522 2 -16.3601 -7.39257 -20.4718 0.4238 
4796 3 -14.496 -1.49744 -18.4925 -0.8476 
4949 3 -12.9398 -0.623349 -24.8292 -0.8476 
4950 2 -13.8597 -0.883832 -24.5133 0.4238 
5687 3 -10.7835 -6.17419 -26.4266 -0.8476 
5688 2 -10.5927 -6.4774 -25.482 0.4238 
5794 2 -15.7831 -2.35125 -23.8736 0.4238 
5795 3 -14.8292 -2.13542 -23.724 -0.8476 
5989 2 -10.7633 -1.38842 -22.2958 0.4238 
5990 3 -9.85794 -1.36108 -22.6245 -0.8476 
4063 2 -15.5509 -7.85434 -22.5284 0.4238 
6094 2 -12.9614 -5.87704 -21.4052 0.4238 
6095 3 -12.3797 -6.6706 -21.4504 -0.8476 
6096 2 -11.9691 -6.7015 -20.488 0.4238 
6331 2 -12.1071 -3.54068 -17.3243 0.4238 
6332 3 -12.8144 -4.23246 -17.6332 -0.8476 
6333 2 -13.4312 -3.84804 -18.3484 0.4238 
6401 3 -15.8564 -3.80735 -18.4597 -0.8476 
6402 2 -15.539 -2.84273 -18.6104 0.4238 
7514 3 -8.88727 -0.742978 -26.0852 -0.8476 
7608 4 -16.296 -4.23348 -21.4014 -1 
171 2 -8.66386 -4.69276 -20.2198 0.4238 
1727 3 -9.25587 -1.99456 -18.4276 -0.8476 
1728 2 -8.78903 -2.63972 -19.0567 0.4238 
3010 2 -8.84881 -3.58907 -21.9558 0.4238 
3011 3 -8.50731 -2.99805 -21.1438 -0.8476 
3012 2 -9.06067 -2.15776 -21.3404 0.4238 
3622 2 -9.04976 -9.12952 -20.7888 0.4238 
3623 3 -8.87426 -8.19233 -20.4269 -0.8476 
4318 2 -9.72024 -5.72575 -22.891 0.4238 
4319 3 -9.37925 -4.78392 -23.1048 -0.8476 
4320 2 -9.95771 -4.48034 -23.89 0.4238 
5686 2 -11.5693 -6.74428 -26.737 0.4238 
950 3 -3.94715 -2.28377 -2.94419 -0.8476 
3206 3 -11.2379 -1.91169 -16.6499 -0.8476 
4985 3 -12.5034 -1.07695 -22.1089 -0.8476 
4948 2 -12.9632 -0.495641 -25.8569 0.4238 
179 3 -0.164785 -2.21052 -28.0225 -0.8476 
3209 3 -13.3009 -12.6652 -0.281471 -0.8476 
4064 3 -15.7589 -8.86535 -22.3856 -0.8476 
5800 2 -11.0042 -3.02738 -26.0495 0.4238 
5796 2 -14.5079 -3.00247 -23.2995 0.4238 
3205 2 -11.396 -0.992632 -17.0828 0.4238 
951 2 -3.1781 -1.678 -3.22397 0.4238 
1709 3 -2.19375 -7.33399 -25.3145 -0.8476 
5871 2 -16.9746 -1.89713 -16.56 0.4238 
1295 3 -6.61006 -5.98289 -23.3232 -0.8476 
323 3 -5.79206 -1.41308 -27.1039 -0.8476 
1294 2 -6.54048 -5.97628 -24.3571 0.4238 
1296 2 -7.52527 -5.54447 -23.2211 0.4238 
3140 3 -4.35668 -0.803787 -20.7313 -0.8476 
3997 2 -5.84729 -6.19712 -26.1733 0.4238 
3998 3 -6.54218 -5.44815 -25.8546 -0.8476 
3999 2 -7.30049 -5.57083 -26.5049 0.4238 
5640 2 -13.6377 -16.106 -0.833811 0.4238 
6322 2 -3.8392 -7.20824 -25.7858 0.4238 
7510 2 -7.31595 -3.52472 -25.486 0.4238 
7511 3 -7.50971 -2.74735 -24.961 -0.8476 
7512 2 -7.97137 -3.08223 -24.1156 0.4238 
263 3 -16.9734 -16.0712 -10.4727 -0.8476 
5437 2 -0.639378 -3.6056 -24.7144 0.4238 
169 2 -8.73919 -6.3247 -20.1681 0.4238 
170 3 -8.61661 -5.50782 -19.5941 -0.8476 
283 2 -7.01656 -8.97804 -25.6426 0.4238 
284 3 -6.59307 -9.701 -25.0416 -0.8476 
1699 2 -5.12819 -4.15612 -24.6949 0.4238 
1700 3 -4.60504 -3.45725 -24.2061 -0.8476 
1701 2 -5.09614 -3.43218 -23.3209 0.4238 
2233 2 -4.89642 -5.04774 -21.2958 0.4238 
2234 3 -4.60916 -6.0253 -21.2921 -0.8476 
2235 2 -5.2715 -6.2067 -22.0548 0.4238 
3624 2 -7.85426 -8.07842 -20.5094 0.4238 
4766 3 -4.76834 -6.41112 -18.6166 -0.8476 
4767 2 -4.67101 -6.45976 -19.6366 0.4238 
5134 2 -2.29037 -3.68753 -20.6844 0.4238 
5135 3 -2.19862 -4.37507 -21.4113 -0.8476 
5136 2 -2.88252 -5.06475 -21.3075 0.4238 
5209 2 -0.428551 -1.82997 -20.9259 0.4238 
5210 3 -0.273386 -2.17372 -19.9674 -0.8476 
5211 2 -1.23673 -2.31476 -19.6952 0.4238 
5593 2 -2.61849 -7.66764 -20.7179 0.4238 
5594 3 -1.64972 -7.83046 -20.9038 -0.8476 
5654 3 -1.20238 -1.24049 -22.2898 -0.8476 
5655 2 -1.31685 -2.16668 -22.7127 0.4238 
6457 2 -1.0315 -5.57881 -22.9791 0.4238 
6458 3 -0.603199 -6.38591 -23.378 -0.8476 
6459 2 -1.25995 -6.69429 -24.1136 0.4238 
6481 2 -2.4765 -2.55531 -25.2125 0.4238 
6482 3 -2.03388 -3.02163 -24.4756 -0.8476 
6483 2 -2.98905 -3.11843 -24.0726 0.4238 
6878 3 -6.23883 -8.53185 -19.6173 -0.8476 
6879 2 -5.81907 -7.6899 -19.2007 0.4238 
7591 2 -3.42731 -2.10968 -19.894 0.4238 
7592 3 -2.8513 -2.74767 -19.334 -0.8476 
7593 2 -3.18675 -2.4838 -18.4131 0.4238 
324 2 -6.74879 -1.63437 -27.3291 0.4238 
1710 2 -1.51859 -7.72697 -26.0248 0.4238 
5024 3 -5.61658 -3.4489 -21.573 -0.8476 
4263 2 -1.97483 -3.93699 -8.8198 0.4238 
5932 2 -0.266183 -2.23891 -1.77232 0.4238 
7515 2 -8.57452 -1.44791 -25.4617 0.4238 
5842 2 -17.1139 -4.94387 -18.5798 0.4238 
5595 2 -1.5973 -7.36716 -21.7884 0.4238 
5023 2 -6.60385 -3.24278 -21.5778 0.4238 
5025 2 -5.25997 -2.52216 -21.3847 0.4238 
23 1 -3.28205 -9.71844 -0.380011 1 
4864 2 -0.129961 -10.6123 -8.61557 0.4238 
137 3 -15.4224 -11.4124 -4.47232 -0.8476 
5653 2 -1.24883 -0.720869 -23.1497 0.4238 
1467 2 -16.6248 -7.62205 -2.86143 0.4238 
2729 3 -13.7628 -9.9309 -18.4446 -0.8476 
3508 2 -13.263 -14.5609 -16.1064 0.4238 
3509 3 -13.5954 -14.9954 -15.2592 -0.8476 
3510 2 -12.7428 -15.1674 -14.6798 0.4238 
5824 2 -15.6052 -15.7895 -17.1643 0.4238 
5825 3 -15.0314 -16.6034 -16.995 -0.8476 
5826 2 -14.363 -16.2683 -16.3038 0.4238 
7024 2 -11.0807 -15.3907 -12.9728 0.4238 
3799 2 -9.61201 -0.544939 -10.8556 0.4238 
2855 3 -9.72711 -15.7833 -17.4851 -0.8476 
2856 2 -9.85582 -15.059 -16.7634 0.4238 
4564 2 -13.9579 -13.5703 -18.5169 0.4238 
4565 3 -13.3286 -13.2854 -17.7842 -0.8476 
4566 2 -12.5057 -13.0479 -18.3158 0.4238 
6597 2 -16.6075 -7.42207 -27.5796 0.4238 
1062 2 -9.50096 -9.05382 -18.105 0.4238 
2976 2 -12.0753 -9.28129 -18.3853 0.4238 
5933 3 -0.522172 -1.26002 -1.60169 -0.8476 
1134 2 -13.7754 -10.9112 -17.0023 0.4238 
6599 3 -10.3338 -11.0219 -1.27947 -0.8476 
3604 2 -11.4982 -11.9943 -12.5459 0.4238 
3605 3 -10.6617 -11.7407 -12.0032 -0.8476 
3606 2 -10.1096 -12.6117 -11.9774 0.4238 
3823 2 -14.019 -12.726 -13.3665 0.4238 
3824 3 -13.2617 -12.0519 -13.1525 -0.8476 
3825 2 -13.2227 -11.4243 -13.9681 0.4238 
7036 2 -13.5502 -17.6721 -17.5018 0.4238 
3952 2 -8.86993 -9.69154 -10.4438 0.4238 
5882 3 -0.00839049 -3.94413 -1.48759 -0.8476 
52 2 -5.29704 -17.7379 -13.5742 0.4238 
5300 3 -12.5947 -17.0857 -12.0791 -0.8476 
5301 2 -13.2186 -16.3147 -11.8224 0.4238 
5341 2 -14.3476 -14.9505 -12.5109 0.4238 
3105 2 -14.4946 -14.9339 -2.18266 0.4238 
38 1 -1.36424 -17.5202 -20.2727 1 
6355 2 -10.4743 -17.5626 -12.616 0.4238 
1854 2 -4.74051 -0.679677 -9.04278 0.4238 
6357 2 -8.96048 -17.5551 -12.2464 0.4238 
4262 3 -2.9307 -3.56239 -8.86937 -0.8476 
3677 3 -14.0085 -2.99057 -1.01571 -0.8476 
7025 3 -11.2785 -15.5746 -13.9521 -0.8476 
7026 2 -10.588 -14.9476 -14.4008 0.4238 
150 2 -15.8295 -5.5531 -2.40387 0.4238 
4505 3 -1.75611 -1.04259 -3.98997 -0.8476 
7483 2 -16.1888 -13.9533 -14.1767 0.4238 
7484 3 -15.2205 -13.7458 -13.8798 -0.8476 
7485 2 -14.7585 -14.3135 -14.6097 0.4238 
5647 2 -10.5565 -12.9355 -15.3959 0.4238 
5648 3 -9.96632 -13.7493 -15.5523 -0.8476 
499 2 -15.3328 -10.5192 -15.7026 0.4238 
500 3 -16.1364 -10.0178 -15.3038 -0.8476 
501 2 -15.9541 -9.75912 -14.3389 0.4238 
1132 2 -13.7926 -12.1778 -16.1413 0.4238 
1133 3 -13.7695 -11.184 -16.0411 -0.8476 
1526 3 -4.23793 -17.244 -25.0392 -0.8476 
136 2 -14.4081 -11.4798 -4.40759 0.4238 
3834 2 -17.135 -10.0317 -19.5393 0.4238 
1635 2 -14.0065 -11.6214 -11.2072 0.4238 
3954 2 -9.21378 -10.9923 -11.461 0.4238 
4675 2 -10.8357 -10.0485 -14.7632 0.4238 
4676 3 -11.5997 -9.37388 -14.7937 -0.8476 
4677 2 -11.8434 -9.24563 -15.7571 0.4238 
2618 3 -15.4461 -0.340039 -6.52943 -0.8476 
4012 2 -9.07622 -5.98447 -3.98835 0.4238 
6400 2 -15.7466 -4.13099 -19.4192 0.4238 
5287 2 -16.2401 -17.5696 -18.432 0.4238 
7239 2 -0.457723 -13.9281 -1.47223 0.4238 
7261 2 -10.8345 -2.33277 -0.952949 0.4238 
7475 3 -11.4241 -0.396191 -13.388 -0.8476 
5991 2 -9.89888 -0.57139 -23.2017 0.4238 
4261 2 -3.00278 -2.74831 -9.47142 0.4238 
4992 2 -1.33619 -16.7062 -23.2598 0.4238 
7122 2 -1.43361 -12.7502 -16.9739 0.4238 
6170 3 -3.05824 -16.8578 -16.905 -0.8476 
646 2 0.387879 -4.42731 -8.98654 0.4238 
838 2 -0.130715 -16.4845 -14.981 0.4238 
2854 2 -8.71543 -15.6536 -17.631 0.4238 
3235 2 -5.43541 -11.0652 -17.705 0.4238 
3236 3 -4.40679 -11.114 -17.5788 -0.8476 
5776 2 -1.07358 -11.2772 -14.0576 0.4238 
5777 3 -0.12253 -10.8779 -14.0259 -0.8476 
7120 2 -1.78646 -12.6315 -15.4521 0.4238 
7121 3 -1.10727 -13.0823 -16.0701 -0.8476 
1060 2 -7.96589 -8.84712 -18.3305 0.4238 
1061 3 -8.60256 -9.48341 -17.8483 -0.8476 
3237 2 -3.99945 -11.6697 -16.8217 0.4238 
5778 2 -0.229366 -9.96631 -13.5766 0.4238 
3990 2 -7.03244 -11.3706 -10.5258 0.4238 
553 2 -3.37077 -14.3249 -9.81497 0.4238 
554 3 -3.86317 -14.8529 -10.5368 -0.8476 
555 2 -4.55647 -15.3578 -10.0211 0.4238 
1159 2 -6.29729 -11.3523 -13.3409 0.4238 
1160 3 -5.78109 -12.1683 -13.0275 -0.8476 
1161 2 -4.84317 -12.0239 -13.3764 0.4238 
16 1 -2.53608 -16.7269 -12.2929 1 
1834 2 -6.22186 -13.4144 -15.5197 0.4238 
1835 3 -7.24103 -13.3228 -15.7277 -0.8476 
1836 2 -7.19261 -12.7001 -16.5504 0.4238 
2530 2 -4.11866 -8.93787 -12.7171 0.4238 
2545 2 -7.83713 -16.9274 -14.544 0.4238 
2075 3 -17.1025 -16.4455 -23.4093 -0.8476 
682 2 -16.8157 -14.9333 -27.5472 0.4238 
2629 2 -3.9864 -13.2436 -15.3769 0.4238 
2630 3 -4.49585 -13.5634 -16.1779 -0.8476 
2631 2 -4.38025 -14.5774 -16.1174 0.4238 
2734 2 -4.01358 -9.98814 -10.3307 0.4238 
2785 2 -1.98062 -13.2924 -13.0056 0.4238 
2786 3 -1.62764 -13.8559 -12.2388 -0.8476 
2787 2 -1.71651 -13.0962 -11.5648 0.4238 
4156 2 -8.56207 -14.3114 -12.6208 0.4238 
4157 3 -9.42427 -14.0908 -12.1223 -0.8476 
4158 2 -9.004 -14.103 -11.1985 0.4238 
4918 2 -2.36537 -10.9554 -11.3984 0.4238 
4919 3 -1.57079 -11.1584 -10.801 -0.8476 
4920 2 -0.773898 -10.7768 -11.297 0.4238 
5014 2 -6.85559 -14.5591 -17.4101 0.4238 
5015 3 -7.15446 -15.209 -18.1363 -0.8476 
5016 2 -7.1719 -14.6327 -19.0184 0.4238 
5071 2 -1.4497 -15.2407 -9.05808 0.4238 
5072 3 -1.02119 -14.3493 -9.17198 -0.8476 
5073 2 -1.79019 -13.7485 -8.85706 0.4238 
5224 2 -1.01832 -14.7313 -13.4923 0.4238 
5225 3 -0.77388 -15.2229 -14.3591 -0.8476 
5226 2 -0.761723 -14.5236 -15.1034 0.4238 
5254 2 -7.84156 -10.9969 -17.8877 0.4238 
5320 2 -7.73017 -9.34561 -13.8978 0.4238 
5321 3 -7.55917 -10.3476 -13.7786 -0.8476 
5322 2 -7.94832 -10.4511 -12.8426 0.4238 
4851 2 -8.86136 -2.96876 -0.162794 0.4238 
5649 2 -8.99235 -13.4131 -15.5441 0.4238 
7072 2 -6.12254 -15.4905 -13.2154 0.4238 
7073 3 -6.83166 -14.7826 -13.0691 -0.8476 
7074 2 -6.35127 -13.8822 -13.0259 0.4238 
7615 4 -4.30187 -16.3818 -14.4932 -1 
7636 4 -1.99647 -17.8201 -9.81067 -1 
7645 4 -2.85281 -11.8898 -14.1088 -1 
6171 2 -3.54433 -16.7955 -15.9726 0.4238 
7474 2 -11.5193 -1.37961 -13.6267 0.4238 
2531 3 -3.77618 -9.86113 -12.4056 -0.8476 
2532 2 -3.57734 -10.4866 -13.1923 0.4238 